ITEM: TIMESTEP
27
ITEM: NUMBER OF ATOMS
3456
ITEM: BOX BOUNDS pp pp pp
0.0000000000000000e+00 9.6627997967946555e+01
0.0000000000000000e+00 8.1705996432429529e+01
-1.1763580788950838e+02 1.1763580788950838e+02
ITEM: ATOMS id type xu yu zu c_peratom c_stratom[1] 
1 1 5.2943552245051828109 2.9043705224706184431 1.6231904061395585614 -6.908147123 7867859.625 
2 1 4.9676009249573240822 81.372935262280378765 1.6233138759587144584 -7.010927187 6521693.084 
3 1 96.233001057850728444 2.3006774531050848687 1.6226201322404827376 -7.056729453 6508387.659 
4 1 95.924735654000770069 80.826783492180283019 1.6212668149302400522 -7.023372328 7608541.262 
5 1 2.302460273444544292 4.2264394987141740145 1.6240218827450128014 -6.988217969 6977057.42 
6 1 2.2285579426818826754 79.486219700933261834 1.6222318942222309079 -7.005097422 6710511.69 
7 1 11.198960390285291666 2.8191143935298637047 1.6228109649009923032 -7.056226275 7579388.665 
8 1 10.794122291377016509 81.377015803924123816 1.6214394802038396559 -7.196674509 6023987.098 
9 1 8.3316468137837134122 4.3920415243518950987 1.6251910706100316517 -6.911946419 7806888.896 
10 1 7.8806985818929682353 80.045584272231323553 1.6218365331221846759 -7.209376898 6282978.476 
11 1 17.043279731212098937 2.2851488960743160384 1.6244657836874001333 -7.129172168 7118055.702 
12 1 16.406187892861321842 80.919673881413544336 1.6187796950866903956 -7.276070978 5270487.435 
13 1 14.286857593483668794 3.9304639104499843327 1.6209508283613371926 -7.094753119 7382042.49 
14 1 13.489775148615727574 79.675139065806348526 1.6232726270392472401 -7.227535629 5673011.579 
15 1  22.7769089654388317 1.8219225538419907551 1.6218475188112237984 -7.070634856 8007513.848 
16 1 21.810081530034238995 80.58898125380541444 1.6208266401931692435 -7.303377277 4563089.634 
17 1 20.069339810680620673 3.4836716540684444787 1.6194375395799216477 -7.127077163 7218272.997 
18 1 18.994143304213324086 79.163805924293200178 1.6244825517110195179 -7.282943271 4843182.762 
19 1 26.026473066933345279 2.2959251095083015315 1.6215697493593093093 -7.029145002 8108335.588 
20 1 28.712812697575508025 0.46315125004571700007 1.6259502268969718841 -7.031465421 8197112.184 
21 1 24.35476140932295408 78.949174597112971696 1.6115966349721420059 -7.371809488 4400312.63 
22 1  27.4261159889731303 79.354375765642558349 1.6226185646013253638 -7.353713795 4295318.264 
23 1 32.822522170104640793 3.8528837747994955087 1.5425886901255403405 -6.966344012 8241339.568 
24 1 31.97171968843954204 0.74270621086200083738 1.5438731252641211267 -6.983116454 8824377.367 
25 1 26.85527729611645853 5.3295312470115936421 1.6213427569955101148 -6.942316947 8611716.066 
26 1 30.162443671215868335 5.7567681210984051887 1.6241640988038834603 -6.954457368 8399905.235 
27 1 36.070787895715916704 3.4515201530392727314 1.6247652122623239546 -7.036861104 7505392.865 
28 1 37.87339075404943145 0.76441650263414417932 1.6247955796257207428 -6.562937721 11006699.9 
29 1 34.928267229398102245 81.081866675626812935 1.6169371512169148364 -7.015479208 8153643.594 
30 1 38.073293147239084533 5.7763559719637713741 1.6140989292210077277 -7.313490994 5123807.322 
31 1 41.099035044611895273 6.4404201246193100161 1.6198407377316583755 -7.163869781 7268968.956 
32 1 44.141411335025104279 5.3223017413886442029 1.6239660081524558422 -6.916875689 6571587.708 
33 1 44.416669976547026977 2.0072013543162543492 1.6264235149263961411 -6.513954747 9530499.267 
34 1 41.380360918230110201 81.869227967033211257 1.6273671038422719004 -6.434380205 10268440.26 
35 1 53.806236230066524229 1.8565585574949179382 1.6306595679278506061 -6.183490579 10096470.07 
36 1 54.044460165456939649 80.046508357305583559 1.6296785348656723791 -6.350888329 8478838.926 
37 1 50.507085569497569111 3.2545096252393235225 1.6314742202278322836 -6.122705058 9364306.877 
38 1 47.731859900098051241 0.96465966049188489606 1.6280062599404645507 -6.364065912 8917958.034 
39 1 51.25224338238016486 77.824371970161053014 1.6307346818433885449 -6.285035948 8551709.479 
40 1 48.046105507841275539 79.232812954600049693 1.6264501521414820306 -6.435016961 8888816.553 
41 1 59.855162841816557773 2.1265423502908471498 1.6217225417358589468 -7.020600045 7675583.264 
42 1 60.004749686025924404 80.650308792664787916 1.6220995983786012928 -7.094259443 7131385.811 
43 1 56.929110339359418447 3.7128084069759905717 1.6303071652622591614 -6.400805649 9169285.536 
44 1 57.295996066688395842 78.849311231918747467 1.624699311724102424 -6.785615498 8634134.636 
45 1 65.881218452469937574 2.2164583579040559869 1.6222619873261208134 -7.138269593 6892039.754 
46 1 65.894862456024767994 80.905826802218840044 1.617521407430678293 -7.260863915 5454701.627 
47 1 62.883140554894104923 3.3073304754784160764 1.605169913270646731 -7.108393995 7697410.125 
48 1 63.071552046936218971 79.590822789247738456 1.6210362720958266802 -7.136019523 7202091.32 
49 1 71.994582812623988843 2.8259617950227471361 1.6228075734073617031 -6.921562189 8224174.101 
50 1 73.699653029956408545 0.059784573520644958278 1.6223419055186274473 -7.03960768 7401013.16 
51 1 68.721148449159343841 3.6392447048177132274 1.6242731825516310007 -6.896253125 8939549.13 
52 1 68.557985610705756585 79.24600453252924126 1.6217532749291883043 -7.236838313 6578833.317 
53 1 71.722385030379868454 79.327231268171686906 1.6204143551223635367 -7.251151081 5748874.581 
54 1 79.016666670699507335 1.9765209591687409318  1.62290640886564419 -6.984662353 7404025.061 
55 1 76.952948332952459509 81.163865881239956934 1.6234650240202677107 -6.966354502 6985716.898 
56 1 74.157573282557521566 5.1875771212186352344 1.6215372158222376431 -6.975297675 8475441.632 
57 1 77.498419117972261461 4.882990612305912137 1.6253705766069239669 -6.923951872 7976996.043 
58 1 82.29765958604825471 1.5237982089999422275 1.6219904033394225706 -7.039846427 7641556.613 
59 1 83.634931704257596152 80.323133568411407168 1.621336445052486086 -7.080341272 7247490.554 
60 1 78.247686527500476927 78.121534015244705529 1.6259886109520451658 -6.871150818 7747787.03 
61 1 81.592932691164477887 77.835771487988296258 1.6228811502204802952 -6.977418042 8302719.649 
62 1 90.305968421395832024 2.0622872257999573797 1.6192345696282217649 -7.195817994 6350474.449 
63 1 89.91130297129068083 80.668535713244210683 1.6230924947337521669 -7.015727375 8147864.671 
64 1 84.50493012853544883 3.8771059534152252368 1.622641540364870405 -7.034766708 7954063.157 
65 1 87.813001478735827732 4.0186188354852632187 1.6229848264596782315 -7.051696046 8448623.88 
66 1 86.804597520683444145 79.519496706897072613 1.623156264248392322 -6.99215969 8607390.878 
67 1 93.239945943230168268 3.3578594187653565406 1.6174763764304880276 -7.192566058 6697608.677 
68 1 92.924428727762887092 79.402080174468324003 1.6226205677847813647 -6.993844072 7886710.867 
69 1 9.125971327074800854 7.5403404009980494749 1.6211275533269353666 -7.089338329 6016066.256 
70 1 1.8755501361431614615 7.446411929631076454 1.6213811714559900334 -7.064092164 5483351.191 
71 1 3.8830156079707585093 10.044750883734673508 1.6258651578681628802 -6.927935627 7961697.434 
72 1 7.2349669194892829438 10.154610474677740584 1.6246355679714461484 -6.94970607 8067011.536 
73 1 14.983933297305254584 7.0104457288782491275 1.6219278484555597064 -7.11783638 7215708.065 
74 1 12.188635754188187121 8.5556136996384974935 1.6206423999922829893 -7.166768553 6839048.644 
75 1 20.781798083112025921 6.5260985943041376345 1.6213130737569518836 -7.032419254 8153704.82 
76 1 18.02162627160346986 8.2142766072737192218 1.6211101197466726287 -7.07742597 7482400.749 
77 1 24.045362534504821639 7.035590490067088254 1.6208395254636567273 -6.974672614 8422219.839 
78 1 30.834959301190668413  8.85341946054809803 1.620298430140090451 -6.993757566 8274983.061 
79 1 24.698452754515550112 10.113272048024890992 1.6215015132601209302 -6.872673398 8875188.304 
80 1 28.023331443535635543 10.512928515646377647 1.6211838636176061357 -6.932485749 8720414.602 
81 1 36.964823852179662822 8.6249311862412874063 1.6177034167580421897 -7.172217885 7324868.684 
82 1 33.99979327606595092 9.827226859069087439 1.6234577512093595342 -7.024876224 8352103.206 
83 1 39.984598914227511557 9.3435848509025394293 1.6149614508714527084 -7.284992293 5104631.62 
84 1 49.931446978981611551 6.8260240611039337821   1.6318759154705198 -6.13390401 8437050.432 
85 1 46.544483457428803774 7.6610063731977628976 1.6255329785774244034 -6.613789126 8495123.868 
86 1  57.8930779390716026 7.0226170861694123815 1.6227943527608768015 -6.719070897 7179561.021 
87 1 52.326401300318138965 9.5916366770181245016 1.6297935687576332597 -6.208651028 9715901.21 
88 1 55.905314797902363466 9.662168841260905694 1.6263400753998988879 -6.509760863 10166341.84 
89 1 63.668536098160657843 6.3469698063459487614 1.6060697885427692722 -7.067583671 7778578.056 
90 1 61.059047754341975178 8.230020703660992254 1.6219670824292837796 -6.896095482 7808641.353 
91 1 66.924662329867985022 6.2578265889061306382 1.6179191247499071782 -7.087882212 7711586.264 
92 1 69.067583217649342942 8.5053192611062051753 1.6197003183346787569 -7.192963191 5944707.342 
93 1 72.174917953072181831 7.6951740835360968873 1.6205037252031551098 -7.150089158 6288477.108 
94 1 82.934541507736909693 6.6405014895453762236 1.622608841182340722 -7.15126821 6941792.357 
95 1 79.737237626421460845 7.2795802220115897185 1.6236196065719024073 -7.037943374 6697432.34 
96 1 89.746948568375515265 6.5121548697576470133 1.6210718646492832118 -7.247767398 5445567.079 
97 1 85.099718616834024942 8.903056609902334273 1.6160309626606743638 -7.301540354 4774616.579 
98 1 88.213176827054240903 9.1475318858887249007 1.6223164080172036705 -7.307638278 4408777.681 
99 1 92.900319886611953279 6.437250213620333561 1.618001685639680387 -7.209870701 5818843.915 
100 1 95.448478217361184761 8.3722373761214488042 1.6228500859474326301 -7.20088339 6055973.619 
101 1 95.440505068399104971 11.518959906386569969 1.620885286183767926 -7.201963232 6306830.447 
102 1 1.8351792823321060322 12.579328927856508358 1.6202559103022529108 -7.080105297 5605995.564 
103 1 12.452769229176320565 11.683328070789389841 1.6215922248802818739 -7.046736929 8057784.717 
104 1 9.3640772228086266438 12.650833730040661251 1.6203193069101413659 -7.049117886 6583197.278 
105 1 18.452130289990197554  11.3634665978281717 1.6245958676217244765 -6.783242769 9102198.851 
106 1 15.486351238031232924 12.993297225518386284 1.623416520465547741 -6.891603784 8315992.366 
107 1 21.829982493710627267 11.819325746962189072 1.6236535779116216816 -6.822223929 9225832.121 
108 1 28.988422122462029762 13.493357603648416188 1.6197363710612504573 -7.104084161 7572019.236 
109 1 23.054605114574574287 14.708503751037023122 1.6186459949954983273 -7.184973697 6344841.823 
110 1  26.2374966883128522 15.109384191692003085 1.6214636285417165507 -7.154263479 7228521.966 
111 1 34.937817932248229624 12.84991633436020031 1.6206786898159162291 -6.885504496 8963205.556 
112 1 32.096020116186359417 14.475931294999272225 1.6220704155302922977 -7.046468509 7981954.884 
113 1 41.855513287769028352 11.812867317949200086 1.6046606329489647713 -5.60875374 12448665.08 
114 1 38.268896125873581582 13.474645297426938839 1.6128130284190607124 -6.682410937 9240609.354 
115 1 45.270790331160824849 10.837773765406071291 1.6163742438392585399 -6.528873151 8792764.25 
116 1 47.57272081769831118 13.286346719642448733 1.6255666787093130399 -6.543356795 9735685.06 
117 1 51.097578079789848005 12.798994631550215217 1.6270795512836104812 -6.386429986 9546336.023 
118 1 61.604226865594597484 11.479075144464362168 1.6288765850772570776 -6.21980852 11500690.28 
119 1 58.244243217422592807 12.17247354665772896 1.619312565593408193 -6.702712131 8192454.079 
120 1 68.035236129478889211 11.464063649329238714 1.619002235221023378 -7.123850175 7451265.389 
121 1 65.091498321963413787 12.88428200957259584 1.6312347896494472366 -6.301636313 11113028.74 
122 1 73.258354378576385102 10.554210372805341578 1.6144579248651989012 -7.358722851 4563957.888 
123 1 70.937550560160119062 12.561269693569458994 1.6166763414552436373 -7.329802355 5353002.485 
124 1 79.014975364455693807 10.442341931387668197 1.6248550532595622542 -7.144213373 5323705.422 
125 1 76.107233598113481321 11.805115732854346788 1.6226288509242672298 -7.231234069 5635110.314 
126 1 84.343638490603709101 11.858256519238562277 1.6161682567435859958 -7.35960383 4606020.807 
127 1 81.349341115541193403 12.604599356482138361 1.6201912311949882017 -7.285519151 4252512.573 
128 1 89.670343692077949527 11.89936522442235578 1.6215532695482106629 -7.239556083 6192862.578 
129 1 86.997803115955505859 13.447588637207273266 1.6187331745588751097 -7.357304912 4381689.874 
130 1 92.645105299851636005 13.068962305997535722 1.6230962962876087641 -7.185843341 6317756.813 
131 1 8.7870665484091450281 15.823965070892468177 1.6257266864593589162 -6.724241363 9209177.554 
132 1 2.3555570896104991441 15.798588112947864914 1.6272841246399412096 -6.735389442 8881072.421 
133 1 5.5575395085587171451 17.052247972877175641 1.6243472770044271591 -6.679210972 9440263.289 
134 1 15.100253390657487174 16.20740600905509865 1.6231217384211800159 -6.831748285 8637105.694 
135 1 11.874031188163991501 17.276972791063634816 1.6241643591048307016 -6.776708317 9080477.257 
136 1 21.238452140290050352 17.31529781347368413 1.6243685953086473006 -7.017888421 8517217.76 
137 1 17.965839834573415601 17.955665942523552303 1.6243716809244037602 -6.895248846 8606613.943 
138 1 26.689649113814027714 18.157294865331110145 1.6190588524499136547 -7.200325647 6732251.457 
139 1 23.736243173718985844 19.29400315061099036 1.6193238690350215681 -7.218964506 6122560.262 
140 1 32.458417564441347736 17.595794165800892728 1.6197436531560971407 -7.040780855 7654243.117 
141 1 29.67331148941052632 19.314993857760089924 1.6239153832863342242 -7.097125358 7108615.175 
142 1 38.605275207749201627 16.609197595065250397 1.6023577817138123791 -6.640951474 8699121.854 
143 1 35.630794515017463198 18.381314690961552571 1.6236340585849742268 -6.795996297 8550641.715 
144 1 46.002700242677100562 16.297448209708687017 1.6207835976145392731 -6.338619532 10825539.1 
145 1 42.056574438908782554 17.203574497806069843 1.5955203044787233946 -5.469982953 12808029.1 
146 1 53.541166184403621742 15.352099517652881389 1.6281521293421126195 -6.300675582 10745162.93 
147 1 48.516906458352529796 18.534403690835677736 1.6231353009412508026 -6.794721253 8912280.788 
148 1 51.934678854638747225 18.310135999834390219 1.6248140933742303282 -6.722954762 8201071.437 
149 1 57.230482288502805943 15.325727232775989251 1.622480116299511943 -6.001250308 12342439.45 
150 1 66.504726950155585996 16.015791602601478161 1.6244479564316252063 -6.538741083 8999831.686 
151 1 60.59177672422018901 17.61976633968352246 1.5918343660059361966 -5.511745924 11440947.51 
152 1 64.10438333002130662 18.205691510558629886 1.6120900061578851137 -6.619033213 9433904.531 
153 1 72.334896246858463087 15.274204724976138792 1.6200716477645380476 -7.142446841 7300726.913 
154 1 69.851638142667027864 17.302195532089410079 1.6264420434698272366 -6.529636349 9337240.584 
155 1 75.536264174591181586 14.911999115244956471 1.6242739163719368545 -7.157409892 6962991.333 
156 1 81.092967467696340123 15.712661678828235168 1.6227608848732189006 -7.183316733 6542473.121 
157 1 78.108224462141237154 16.797371025685986723  1.62095859597520775 -7.232542155 5933762.456 
158 1 86.932545860072323762 16.491764452918463491 1.6225961564152890926 -7.146846442 7207237.382 
159 1 83.855790788878024955 17.377448748866470396 1.6212492664564663869 -7.150388789 6838625.488 
160 1 92.863178265248322418 16.239112957788986336 1.6235567891098694471 -6.988006731 8109699.579 
161 1 89.914598120934073222 17.710611439174247295 1.6214757306191169839 -7.060341221 7580592.693 
162 1 95.971175021886523382 17.400105078430279093 1.6222080857006382359 -6.842696521 8484300.26 
163 1 5.4773519898983877852 20.292821859468887169 1.623286751121452598 -6.847929373 8585707.923 
164 1 95.843352437099014196 20.642382881809822948 1.6252206418005930022 -6.716585897 9095255.406 
165 1 2.416392506372945892 21.72529729853735958 1.6243704919472081727 -6.844747526  8801319.3 
166 1 11.633292908573691804 20.485209837687719414 1.6214313746158239837 -6.971708564 7810910.387 
167 1 8.5464589230788341467 21.660165018214307509 1.623448498168209353 -6.933156196 8417927.05 
168 1 17.553981718083903729 21.13567868572154751 1.6217501281302015848 -7.027781551 7491860.677 
169 1 14.45348294139579437 22.234413122871469426 1.6243014662900079337 -6.992015168 7678866.799 
170 1 23.436226762948511038 22.369768715119331404 1.6213595423745625901 -7.033157512 8007485.243 
171 1 20.237764436814757119 23.020463121235508197 1.6227451878184642187 -7.055909833 7444302.758 
172 1 29.474745393692387552 22.480403072124534702 1.6206360492008691221 -6.920332284 8413090.982 
173 1 26.38754176598459722 23.815739487697634047 1.6266968236049919039 -6.945488185 8349774.675 
174 1 35.423233522762465952 21.597662505714463776 1.6210816791961244476 -6.854974123 7633635.115 
175 1 32.605611581204222205 23.532434585111438707 1.629245203042561041 -6.856256325 7724011.711 
176 1 41.350772407752586446 20.359047506184769105 1.6129675678665416072 -7.041467802 6458250.121 
177 1 38.615696584975154337 22.176940642762961176 1.6238032362452281543 -7.036483602 7238684.51 
178 1 47.183850429642149038 21.473234307199948745 1.6233738199381768652 -7.13461606 6266156.396 
179 1 44.000978005802117821 21.997124289372642636 1.6221451170686338461 -7.186413445 6942890.199 
180 1 53.812288181485477878 21.111050394590577639 1.6240114457801932968 -6.90595271 7127980.855 
181 1 49.075809983274069737 24.054784941132066223 1.6237485455136340118 -7.200837802 5761487.518 
182 1 52.281146278468305866 23.939194953698393675 1.6217174173629353984 -7.148151454 5749996.086 
183 1 59.980259953683599861 20.814717313493996897 1.6091387989312389006 -7.015480502 7455849.136 
184 1 56.967030802844270454 22.060049532904205449 1.6242368559332780453 -7.020601588 8040001.934 
185 1 65.665827504536892434 21.155974551065643396 1.6265828613228818789 -6.524827196 10017173.68 
186 1 62.750404904878458012 22.574097256458578897 1.6198739134478921109 -7.062177538 7035568.043 
187 1 71.498925067454180748 20.246702042569534541 1.6218132115055541309 -6.605541276 9196197.48 
188 1 69.07320018769379999 22.395349665315155363 1.6251915743162441697 -6.427042822 9829986.855 
189 1 77.751060699263817355 19.884980918525634763 1.6192090853587690624 -7.153093933 6884043.912 
190 1 74.864865730582721426 21.319101103728691271 1.6268765359063332987 -6.681809119 9515864.956 
191 1 83.596253801482546919 20.487689798233784444 1.6202760685697294996 -7.103953951 7503122.476 
192 1 80.533992908678300182 21.498753171341839163 1.6194306171944028439 -7.137114155 7221553.052 
193 1 89.640811156032938811 20.85442120145264866 1.620847372551740051 -6.926557928 8521512.377 
194 1 86.488078343466739284 21.988984341593265981 1.6241998239154675776 -6.964980279 8316488.246 
195 1 92.693030229797045649 22.101021560571801672 1.6250073356227618948 -6.771384017 8897787.115 
196 1 8.5859478680770919823 24.841317242310289259 1.6211359727533316555 -7.17883626 5819992.077 
197 1 2.7491722512513794285 24.881027041367168806 1.6196340596208604889 -7.211718905 5391129.55 
198 1 5.6764969637952953363 26.090924901589016116 1.6208101642279217902 -7.263801606 5937374.27 
199 1 14.220428939908110522 25.434129244927202507 1.6210114955053289698 -7.152376337 5868699.407 
200 1 11.261209927139864462 26.654844965164329551 1.622266704540657356 -7.152128088 5998237.489 
201 1 19.772124370557694562 26.116365683903136841 1.6193827119436676742 -7.261232572 5595850.473 
202 1 16.841994749774137574 27.318634585817989091 1.6225353635346095871 -7.181550234 5638459.451 
203 1 25.522828743570613597 26.862344926970912695 1.6169523532876652894 -7.253247805 4697761.522 
204 1 22.502370858279558519 27.714716626554785961 1.6219208840821375261 -7.271966161 5684059.325 
205 1 32.528134285399403325 26.750792312508071547 1.6168684230377743383 -7.194806829 3528881.001 
206 1 27.278288684342687276 29.486232857059437862 1.6258271333160385641 -7.180892153 5954499.085 
207 1 30.459850054064148139 29.115795786159409886 1.6202872173471196682 -7.199793611 6480837.954 
208 1 39.515019676651959912 25.183274693948753509 1.6205254636026442672 -7.22171944 4207563.927 
209 1 34.847707842712146942 28.825810922269681669 1.6205940404559251444 -7.166761192 6140606.343 
210 1 37.948262155643220694 27.981118838294577245 1.6262776692032263615 -7.171275386 5527272.09 
211 1 42.607416607904163186 24.755097871677069321 1.6197961763330339657 -7.316001921 4210826.07 
212 1 44.481727544955006692 27.107759914570635829 1.6214312049070995769 -7.371046777 3779588.924 
213 1 47.556389746922974382 26.817180522154995259 1.6169590867524035183 -7.321904074 3410850.901 
214 1 57.147777935107939129 25.242156976820240288 1.6200659255957436944 -7.198724045 5673885.077 
215 1 54.239537460788653789 26.491066114877373394 1.621816390807482744 -7.148971412 4635429.326 
216 1 62.783167622448729617 25.746784017857727633 1.6228809303550559839 -7.132217639 6751078.079 
217 1 59.827923974110582606 27.000310746853923405 1.6227521923763117417 -7.172933327 6195874.689 
218 1 70.924885638581244507 25.289810140580602393 1.6245598358402710826 -6.58595815 8389137.94 
219 1 65.503710906568116457 27.509222919115419614 1.6229025207838867484 -7.097394377 7566763.672 
220 1 68.740267358273612786 27.578785442142500273 1.6206498657795793683 -7.152411043 6936953.188 
221 1 76.432876918153326073 24.210106390681804811 1.620279460106959446 -6.897377216 8067812.684 
222 1 74.227323840735209615 26.527312683047206576 1.6237077594121065438 -6.62103761 8128937.697 
223 1 79.804451416206148906 24.548567986863524482 1.6230944136050320381 -6.732960365 9133062.574 
224 1 85.84962409340111833 25.124583722818968567 1.6216525688684699791 -6.950464496 8430752.18 
225 1 82.704842146055526086 26.310581200761294696 1.6238951172353226493 -6.829120099 8518749.632 
226 1 91.807477302992140267 25.188855078640816743 1.6196492752993052466 -7.121359178 6462563.303 
227 1 88.823319022018608848 26.459036350539165028 1.6216877939672189601 -7.071642469 7620054.891 
228 1 0.57881460324267863804 27.21670335046541922 1.6245157173330346811 -7.145476308 7127636.04 
229 1 93.965464161256463171 27.496093682312594098 1.620911989706155909 -7.145328186 6950082.193 
230 1 5.5022085000846212566 29.18458970669892949 1.6214059245339473847 -7.280383264 5637004.381 
231 1 2.4169249177079468183 29.771658401264648575 1.6179041331380024094 -7.286013358 4959710.309 
232 1 11.108262364515711695 29.851548932939341086 1.6239605917338015839 -7.136046193 6258814.815 
233 1 8.1083927665135444585 30.974023699603865367 1.6193869993724638867 -7.222341054 5988094.196 
234 1  16.7591606450235453 30.50301056732357452 1.6227688048230235474 -7.135987262 6407129.717 
235 1 13.783422608250777586 31.688709576044910676 1.6196466850022999129 -7.138377824 6198872.191 
236 1 22.433197158959778506 30.839334395609071748 1.6209473223779560236 -7.235669546 6075902.189 
237 1 19.546500171711748806 32.176984558728314312 1.6211854327141013155 -7.14088179 6246651.682 
238 1 25.369056453829696096 32.063800645221178343 1.6205253798533083565 -7.143049898 5169852.542 
239 1 32.782595533824455458 31.232532099734278574 1.6181661748758857655 -7.094343842 4205415.287 
240 1 43.016628162612050801 29.784463388359853298 1.6205778285704683928 -7.339331215 4966822.616 
241 1 39.953673803560008082 30.386338965628350905 1.6209803426194786535 -7.304715116 4433272.98 
242 1 48.31627295766658392 29.807454986803659125 1.6182955104279534986 -7.330636455 4653808.22 
243 1 45.619002704382666025 31.36838968198608768 1.6173030903906335798 -7.347561968 4100184.445 
244 1 53.847820345103201589 29.697435964650441775 1.6241649915455969033 -7.135538651 5384543.64 
245 1 51.056602934199183608 31.296959631193118412 1.6220269287380382206 -7.210381379 5163802.324 
246 1 59.415223081445084574 30.150069304928244662 1.6219678908027987951 -7.218669611 5463632.646 
247 1 56.511631062538675963 31.474414731732665018 1.6206601070182544699 -7.186282806 5470767.303 
248 1 64.940914761269041833 30.572668466692718425 1.6205279386290845078 -7.305541696 5089614.912 
249 1 62.077449765761102185 31.881396736702633632 1.6214124645452889784 -7.260227207 5153066.933 
250 1 70.202248286163694502 30.380166588331007915 1.6215512941579091066 -7.181546093 6858910.577 
251 1 67.640406949699368511 32.145128856626435265 1.6172398999103694273 -7.334591639 4634572.972 
252 1 75.896146478646258515 29.518975797846103148 1.628044499926501576 -6.474189603 10207213.88 
253 1 73.258629568379149077 31.421732439649098012 1.6200707649179149072 -7.102280356 6929411.77 
254 1 82.613582077445158802 29.570689365458708409 1.6252517353340898421 -6.541091507 9960760.852 
255 1 79.305092112427672646 30.745363564085241848 1.6279087132802703142 -6.398877747 10671086.15 
256 1 89.023170834336909252 29.637048652342475208 1.6252234415989030847 -6.738169144 9679120.041 
257 1 85.847527745953527756 30.942342483513300522 1.6242320528948799296 -6.623636137 9546708.052 
258 1 92.350086396738902295 30.254115775700665125 1.6242560571951356607 -6.876695462 8727312.501 
259 1 7.4419170469023967485 34.059647674338641821 1.6254306693179989551 -6.829420757 8982497.03 
260 1 1.2745922122804740351 32.687840856815114421 1.626794490063774079 -6.81617512 9111719.945 
261 1 4.0834399894152806354 34.554398455563692494 1.6191932059100639929 -6.803228167 8968566.806 
262 1 13.574779480845752033 34.882485601424598087 1.6259864750093757646 -6.821962149 8741688.118 
263 1 10.335373332915832378 35.768934552337796617 1.6199712588826631343 -6.868853647 8657349.706 
264 1 19.722342715853493189 35.372001088237084332 1.6240087345876168534 -6.798353029 8930218.158 
265 1 16.571278804242833615 36.509384357728251302 1.6216812411470340471 -6.82096632 8610520.599 
266 1 25.968475380688435195 35.248124951373107194 1.6259574289725786667 -6.580279257 9801858.91 
267 1 22.855570443831709326 36.777218290031882475 1.6249871028976408116 -6.669998787 9062131.271 
268 1 32.716963549332511718 34.524920285194419023 1.6370759074564262825 -6.109319771 11743327.56 
269 1 29.33535032919585106 36.304289144081593577 1.6254146869229035843 -6.075545795 11508630.74 
270 1 39.042648600437516393 33.386702707718946215 1.6215166518177885902 -7.098012825 7427578.16 
271 1 36.222721466983436756 35.024869548642328709 1.6223400368851141895 -6.674886027 10330962.35 
272 1 44.957017669659116166 34.342605035359156318 1.6214792241241204884 -7.190036582 6924389.231 
273 1  41.8141018985815478 35.021231078630613354 1.6210301541695550931 -7.143908854 7281280.234 
274 1 50.609300316775332362 34.455418564657733782 1.6246399018097501532 -7.12339326 6592865.694 
275 1 47.687045796707792533 35.898578149973353391 1.6206752270957707207 -7.141831167 6577365.243 
276 1 56.288556830285607191 34.66888692157257168 1.6246406526349641553 -7.118050238 6542520.592 
277 1 53.366941835441359387 36.067401838057385532 1.619224319298554704 -7.163106705 6335527.947 
278 1 62.009729455138085541 35.032758187984697429 1.6229716055753216075 -7.164635616 6604166.71 
279 1 59.066951976650081235 36.326070177585989995 1.6203805705192930731 -7.15193879 6463141.398 
280 1 67.749092222300276944 35.224581824676853614 1.6225565573558931032 -7.181271093 6864073.565 
281 1 64.842621535898672391 36.577351911135913554 1.6215793389890911236 -7.165548713 6640797.948 
282 1 73.574860407452320032 34.601376143325069279 1.6239003628700554582 -7.009782764 7663938.513 
283 1 70.770960180890838842 36.331711182586722941 1.6218530680191727278 -7.071353927 7142747.155 
284 1 79.614507430676411559 34.029127712226454605 1.6232210247856653229 -6.764528494 8650518.939 
285 1 76.685577583669086721 35.695790441706954255 1.6223277110594414019 -6.917787006 8115007.664 
286 1 86.03343874950752479 34.199859577949538902 1.6233292850281102471 -6.530055771 10034492.81 
287 1 82.774849797671464557 35.353955351343898883 1.6247029773045622569 -6.696368217 9383658.839 
288 1 94.519065982387573399 32.74309231873206727 1.6188671504550316005 -6.886838024 8292257.547 
289 1 93.084536111491672727 35.616222837080727004 1.6245161911104499808 -6.172335247 12139116.94 
290 1 89.326641822154954298 35.676965481318056561 1.6284721942414954743 -6.097054566 12601024.62 
291 1 3.2185216700692849123 37.63593698467101234 1.6261332938650909785 -6.185667385 11680211.84 
292 1 96.157993870569299588 37.445589036442967767 1.6260463507391809124 -6.225391949 11595405.72 
293 1 9.8864001208637706242 38.92750413966640366 1.6254930118601789157 -6.493450352 10196738.31 
294 1 6.3843443227463447798 39.389832144211126774 1.6235214546208664999 -6.43664694 10306089.22 
295 1 16.429288913967127428 39.734662595181397649 1.6246488542402643951 -6.584686433 9516139.052 
296 1 13.058685741040035211 40.465219760867050525 1.6222223445581935852 -6.590355882 9708115.075 
297 1 22.780945828569304723 40.070978982688686187 1.6243526299355761644 -6.56130118 9667850.355 
298 1 19.537286302328517706 41.390726090430163708 1.6243106644172466968 -6.52073064 9533187.838 
299 1 29.18478156060281492 39.695707180748492249 1.6261148476692031117 -6.341364562 10263356.61 
300 1 25.978730700663984265 41.465926084823585995 1.6291580510240710744 -6.318645135 10072599.19 
301 1 37.806432749721068376 37.830631440624671313 1.6232070299381695655 -7.032289128 7752852.654 
302 1 32.487796564791523224 40.72541817728735225 1.6239149639818315496 -6.759534856 10084052.86 
303 1 35.648348775078019912 40.115424754107962713 1.6163730177138102562 -7.133171309 7253540.204 
304 1 41.111803691260021765 38.069832496827366697 1.6216025563435612078 -6.905479093 8609252.832 
305 1 47.11544865139188687 38.99062023237843988 1.6220640544269742112 -6.992804084 8336694.751 
306 1 43.900289849037392287 39.885227025715188631 1.6237300282935664963 -6.923172439 8401463.506 