ITEM: TIMESTEP
1078
ITEM: NUMBER OF ATOMS
3456
ITEM: BOX BOUNDS pp pp pp
0.0000000000000000e+00 9.6883402367861862e+01
0.0000000000000000e+00 8.1705996432429529e+01
-1.1763580788950838e+02 1.1763580788950838e+02
ITEM: ATOMS id type xu yu zu c_peratom c_stratom[1] 
1 1 5.3070076789140001594 2.9075878273080011382 1.623172608724212429 -6.895803978 7946632.11 
2 1 4.983967472967451684 81.373630506415693731 1.6233188814559151858 -7.001739384 6601679.381 
3 1 96.485004008566718881 2.303241232860747445 1.6227059782885493444 -7.048374856 6581733.352 
4 1 96.180287937040972679 80.826697990089044765 1.6213817990222911813 -7.012371929 7682785.815 
5 1 2.3071880601823155921 4.2253341780305078146 1.6241239798171920317 -6.978346883 7052533.531 
6 1 2.2363329643049012496 79.490385288715060597 1.6222045951469523661 -6.994775764 6791166.992 
7 1 11.226352547462484566 2.8202619403862061453 1.6227811127023854532 -7.046930055 7646294.917 
8 1 10.823169908680471352 81.375860639534053576 1.6213708137399851505 -7.189051255 6113075.879 
9 1 8.3531952852524931075 4.3915975059382601486 1.6252143392831106539 -6.901366051 7874371.53 
10 1 7.902968086576888318 80.048547290807064769 1.6217900051766640512 -7.201369861 6376630.913 
11 1 17.083385223422343557 2.2858491438382619876 1.6244070574710343102 -7.120842508 7194361.749 
12 1 16.448010260345057532 80.91789450001608941 1.6187821827313249035 -7.269761589 5357900.566 
13 1 14.320281669372995736 3.9276988091192421848 1.6207268613371181853 -7.087253663 7451296.441 
14 1 13.52537857315378389 79.67696311342498916 1.6233056153771341368 -7.22064118 5761590.558 
15 1 22.831557082946087434 1.8201282727901397784 1.6218800937246178329 -7.061177438 8074141.67 
16 1 21.865422873247446489 80.584255090262274734 1.620881838005994835 -7.298148606 4646306.943 
17 1 20.116639969267790633 3.478213616466620639 1.6193975007402385824 -7.118783371 7290808.045 
18 1 19.042290588279726649 79.165123660580533738 1.6244196832247637108 -7.27716075 4930729.367 
19 1 26.086043155735399779 2.294847202001411457 1.6215904086311057064 -7.019715313 8167323.559 
20 1 28.779001171194074971 0.46410406244729057734 1.6258441207395550876 -7.020902311 8267408.142 
21 1 24.415588615104244496 78.946997596955796439 1.6119294538200130695 -7.366913542 4477159.262 
22 1 27.489843605571358864 79.354525564143727934 1.622592585273872734 -7.349753773 4361203.682 
23 1 32.899521980534792931 3.8494280263931783814 1.5431555270107391031 -6.955465512 8315358.914 
24 1 32.045002121069110501 0.73884058492639503868 1.5443837865988476743 -6.970828227 8899023.422 
25 1 26.91716344756735424 5.3293533822304217651 1.6215658105605172956 -6.930076934 8676997.911 
26 1 30.230679553619982158 5.7485396141570088702 1.6239470822251722559 -6.944381058 8457228.753 
27 1 36.153307719613195559 3.4484306996626621356 1.6244327674915073345 -7.028539577 7569043.293 
28 1 37.959851380079619787 0.75932932272744735336 1.6250041988833090478 -6.539767924 11128369.69 
29 1 35.00789965523341607 81.079001854874732658 1.6170273846722731381 -7.006051938 8209327.09 
30 1 38.167308762156913815 5.7653887340695915142 1.6140938807829834367 -7.308864298 5186766.287 
31 1 41.197468192258874353 6.4165491691878395741 1.6195638648761825351 -7.156708719 7362141.164 
32 1 44.248734025087166799 5.3120655218254047014 1.6237940399753816312 -6.912577717 6654023.276 
33 1 44.527972934803869975 1.9973182128443405237 1.6264344879697392177 -6.497541419 9636813.804 
34 1 41.478738321746739359 81.865438824487654301 1.6273204676270920377 -6.412897846 10405980.87 
35 1 53.951873036570681563 1.8533173143901822133 1.6307838493320399031 -6.162046154 10264973.41 
36 1 54.192956427318534907 80.041630418970612482 1.6298054784198752198 -6.331648247 8605898.005 
37 1 50.640548191021984792 3.2453361738399131298 1.6315901884347010498 -6.108667363 9508202.406 
38 1 47.853286721741362442 0.96090854780518875078 1.6280632552738611984 -6.348685759 9023119.324 
39 1 51.387195980355748759 77.823191353003537074 1.6309940311847288541 -6.266715271 8676998.345 
40 1 48.170801578461656334 79.227737257069335897 1.6265305680099377827 -6.418416342 8997604.83 
41 1 60.023647062116467055 2.1256675136247107361 1.6216900368144022693 -7.009483991 7749385.45 
42 1 60.17350806614673786 80.647217994018049581 1.622109361266706351 -7.083915687 7214919.701 
43 1 57.088192652078930678 3.7062411822832470598 1.6303888032967865929 -6.38168029 9291771.075 
44 1 57.456444502609919311 78.848683374709324312 1.6247608523671641656 -6.767525301 8737650.746 
45 1 66.061012736479625573 2.2147559910224074997 1.6222033176287937728 -7.130554451 6966621.83 
46 1 66.074705216524151297 80.902263059604251794 1.6177399119316333564 -7.254957965 5533027.387 
47 1 63.058139176038999096 3.3051175483952381917 1.6056776039479241369 -7.098025395 7780106.959 
48 1 63.24644482607039464 79.589653250641674731 1.6211347310738259964 -7.1268206 7289281.682 
49 1 72.189276538917809489 2.8270681275808393629 1.6228476527235142779 -6.907182675 8303882.127 
50 1 73.898241895238541588 0.058784640596906023724 1.6223766404464154967 -7.028110317 7486473.073 
51 1 68.906101286264316741 3.636834776215445153 1.6243852352470056211 -6.881367804 9022633.496 
52 1 68.744100908095063573 79.245985256134517272 1.6218278022178891362 -7.229036552 6672555.318 
53 1 71.913196248663894039 79.327558344241268173 1.6204718350590183729 -7.243971121 5839191.983 
54 1 79.230318830753972748 1.9750659875923863851 1.6230592431746706517 -6.973101361 7478702.186 
55 1 77.158489327642968192 81.163981628115450917 1.6234714090580129042 -6.95527121 7066919.888 
56 1 74.360559210700330368 5.1868379743571022544 1.6215222652715304275 -6.961374207 8561461.561 
57 1 77.709312167402998739 4.8836955782729143394 1.6254018338189335502 -6.910483709 8050951.585 
58 1 82.518459126458722608 1.5251382436337574955 1.6220812310777035226 -7.027346543 7723316.188 
59 1 83.860370909902627545 80.322769226924307873 1.621480244829309969 -7.069883895 7322322.501 
60 1 78.458661628658006748 78.120612209268500692 1.6261142525532601422 -6.857638625 7825381.886 
61 1 81.811781435607443314 77.83626573217185296 1.623109331233810293 -6.963598336 8386057.152 
62 1 90.547249349324744117 2.0634238064714383043 1.6191909051239499195 -7.18875676 6418124.387 
63 1 90.151957822303373291 80.667209022361518578 1.6230737375990467175 -7.002906814 8224494.723 
64 1 84.733415450501865962 3.8778966296423864613 1.622789497822252569 -7.021529035 8038149.105 
65 1 88.048783747839635794 4.0186427002558140487 1.6230260138289696048 -7.03921584 8533606.746 
66 1 87.037033670254729145 79.521214041529333372 1.6233342490851681017 -6.978095467 8687157.202 
67 1 93.486146165208566572 3.3571961910437453369 1.617579491952932047 -7.184921282 6773097.526 
68 1 93.172377915618497468 79.403883281123881943 1.6225708549364739053 -6.981833387 7958773.036 
69 1 9.1478001534517545679 7.5411614092472873949 1.6209838403417606845 -7.08551134 6062216.735 
70 1 1.8760794686024448996 7.4470011015252550735 1.6213892929684434741 -7.057488217 5546673.799 
71 1 3.8894809925412676677 10.044872739652806359 1.625795356338352482 -6.915481784 8044302.636 
72 1 7.2489067811629608329 10.153674308112933033 1.6245063764316338695 -6.938364013 8147863.147 
73 1 15.015661337309735401 7.0084714793305478153 1.6216705752296951548 -7.114927539 7258386.172 
74 1 12.21425428550503689 8.5482269094230272088 1.6202473257724867572 -7.164724794 6895598.02 
75 1 20.829307162561068623 6.5228576502196080611 1.6213297143519735943 -7.023067209 8217983.054 
76 1 18.058187430287798492 8.1993902138153167414 1.6204766828353001085 -7.077175928 7533554.938 
77 1 24.098036078976324603 7.0302569742959981625 1.6208481094006805812 -6.963426829 8481443.092 
78 1 30.908720903858704077 8.8443534875772709114 1.6202765639839544765 -6.983573036 8344213.875 
79 1 24.747946297375445823 10.111243977129234395 1.622489147694562428 -6.85517453 8945298.37 
80 1 28.080503647373014076 10.484489090651136323 1.6200387423843509715 -6.92037791 8748752.505 
81 1 37.061444676921539099 8.6176395979624551558 1.6181804936945476392 -7.158727916 7449411.602 
82 1 34.082602947919440339 9.7997073107857559648 1.6229685156456972184 -7.014871718 8436458.962 
83 1 40.087042495965711453 9.3194097738667345254 1.6153192016626105598 -7.280853651 5189068.145 
84 1 50.058848479809796572 6.8145178370433905357 1.6319036366209958011 -6.126103543 8540231.091 
85 1 46.664044398208439191 7.6415605185943560329 1.6254280946295449617 -6.61199313 8582048.132 
86 1 58.055164890552610757 7.0168105698335461184 1.6228041841236517939 -6.712987691 7224155.44 
87 1 52.471645080196466893 9.5715192161159645678 1.629521287563070242 -6.198888122 9839523.264 
88 1 56.058724575461695849 9.6520017133481736948 1.6264747796688381332 -6.494084294 10276031.11 
89 1 63.845576678281709349 6.3461388712967501391 1.6067393133720899723 -7.056326309 7867205.816 
90 1 61.226122318909169451 8.2222069986091490534 1.6215281748367416093 -6.887103324 7870167.853 
91 1 67.107997206958373226 6.2584818350358126793 1.6180772281247006728 -7.078441996 7788709.029 
92 1 69.26092827498666793 8.5014244919568415781 1.6198750653135076671 -7.187235462 6016185.372 
93 1 72.373182302635242991 7.6952945777926506921 1.6206369779813269982 -7.143277183 6356142.946 
94 1 83.158908223232856471 6.6427047293272414308 1.6225822905092521786 -7.142332509 7023184.999 
95 1 79.956004796864490913 7.2792713315305759281 1.6237094144748880353 -7.027740426 6773424.369 
96 1 89.986960953203279701 6.5129639399316916482 1.6208967414826354059 -7.241783384 5527629.292 
97 1 85.330417462488028946 8.9038866787795800661 1.6162033055804319037 -7.2962333 4849421.29 
98 1 88.44713238285442003 9.1474555119757230415 1.6222195800738214988 -7.303548988 4471813.638 
99 1 93.144423253657208761 6.4383396358508431234 1.618055212413034738 -7.202503553 5903543.778 
100 1 95.699879960507175269 8.370339343514284991 1.622957802584040321 -7.193878802 6127992.687 
101 1 95.689051704769013895 11.519101673047906331 1.6208758688636444312 -7.19369553 6397866.177 
102 1 1.8333627965059360321 12.577232007013563475 1.6202239844066124164 -7.073214068 5683564.827 
103 1 12.473689242014055267 11.673699241771043233 1.6216642023297798136 -7.046333462 8105661.409 
104 1 9.3850426487112716956 12.646351837479556934 1.6203368954785402067 -7.046315906 6640399.356 
105 1 18.477125962527676251 11.343474713189030112 1.6244503289087197651 -6.791083194 9052202.221 
106 1 15.510841980931147077 12.965615311169845114 1.6238106382942467665 -6.898340864 8324580.509 
107 1 21.846187572701051494 11.783031108502097339 1.6238981213021499439 -6.826232394 9196279.892 
108 1 29.036840237419660582 13.460565479814787793 1.6193596631321784951 -7.09307235 7687702.379 
109 1 23.055423146284816482 14.658751068970365949 1.6177980432357554896 -7.20309111 5999170.422 
110 1 26.226902835579686268 14.980257266076007383 1.6230213909967734498 -7.14903095 7275390.857 
111 1 35.024509401725353541 12.818169409992231422 1.6207857167105250706 -6.870522308 9058236.228 
112 1 32.154894543595268885 14.393509077211453118 1.6219461242936088485 -7.034605903 8139997.636 
113 1 41.975191029809209908 11.773044738050010949 1.6043264143752711259 -5.610100467 12517731.26 
114 1 38.371693640934545044 13.389623237177234572 1.6099392472649864949 -6.687295154 9235049.215 
115 1 45.394742197076894286  10.8119402735395429  1.61651576763452276 -6.534879394 8871941.022 
116 1 47.724194488591493268 13.230848295124868486 1.6248800349066763182 -6.577217067 9698996.62 
117 1 51.247480137554752844 12.772645267248305956 1.6267993210496218826 -6.392818497 9598915.337 
118 1 61.77396407869583328 11.474103715823657623 1.6287358308471189261 -6.174781188 11645320.87 
119 1 58.407416948348249264 12.157353103336602018 1.618736593166615112 -6.699118207 8196382.334 
120 1 68.233903064513057757 11.464302754566471521 1.6191235421174945408 -7.117756577 7496249.732 
121 1 65.284115205953824557  12.8827369228094053 1.6311060964600045953 -6.277540428 11208380.33 
122 1 73.464072673730001384 10.553861077126107659 1.6146505202076348873 -7.35426736 4632123.793 
123 1 71.139835067158429638 12.560613637426364164 1.6169609980170491781 -7.325719708 5407703.033 
124 1 79.231459044512519085 10.444503819727056992 1.6248660500101650417 -7.137293476 5395297.123 
125 1 76.31736436048277028 11.802935440798897559 1.6226063812221731553 -7.224790665 5712086.429 
126 1 84.571397776469268592 11.860099156277728483 1.6162129712315986829 -7.35491325 4695277.224 
127 1 81.572453557168827842 12.604339840508780313 1.6200368132842741797 -7.280338788 4341821.666 
128 1 89.90561492719049852 11.901475518376264162 1.6217144741289588605 -7.231837872 6285452.541 
129 1 87.229142790449898825 13.449248727299744743 1.6185217034828844884 -7.35303611 4460921.58 
130 1 92.887134898702413466 13.067621464056989211 1.6230637845893329807 -7.176729357 6414745.617 
131 1 8.8031904790828843232 15.818057372458671495 1.6253350092401939175 -6.720551951 9233167.663 
132 1 2.3560469217985260393 15.797875916662425411 1.6271852045281176569 -6.722873339 8934517.001 
133 1 5.5671140314430465068 17.044438853981603188 1.6241600563797788936 -6.666777912 9500811.93 
134 1 15.120292174739693891 16.174865431203613753 1.6234837534729253949 -6.831238976 8678996.26 
135 1 11.895069502517142013 17.253759413750110241 1.6239212359736725499 -6.781492004 9083611.742 
136 1 21.304506537825144363 17.322468492379815785 1.6249943998247713406 -6.997912243 8565421.804 
137 1 18.002199638166146656 17.896484474801120257 1.6244602049654386366 -6.871047333 8815957.419 
138 1 26.662842498540953784 18.010229396546062475 1.6178115294145398728 -7.220066553 6534317.007 
139 1 23.788687729376267299 19.335480499485758088 1.6171061557320236535 -7.217473762 6028642.731 
140 1 32.503743709335942924 17.509643011550465985 1.6219286511952550889 -6.961061723 8208838.779 
141 1 29.637638676159440365 19.153772604903910093 1.6249373838282605842 -7.053667652 7388645.704 
142 1 38.758152889951809072 16.498508406234407175 1.6050030411434765831 -6.623302013 9063738.415 
143 1 35.726395365941897353 18.164695820833923534 1.6237450394747174887 -6.769581971 8840715.02 
144 1 46.19120947581360781 16.224346037689009847 1.6206678039233795019 -6.398026228 10793319.95 
145 1 42.240704605278942552 17.004017279994766199 1.5968824079446255482 -5.515120249 12808380.94 
146 1 53.731391648212927237 15.293821233708539964 1.6269687138065382914 -6.336964637 10559531.55 
147 1 48.790540187383413695 18.368101811851900607 1.6240731321715502489 -6.841136568 8790457.668 
148 1 52.171540585485772112 18.235595610340400441 1.6244617714800337893 -6.787269723 7970316.93 
149 1 57.401851574186657956 15.309286498937794363 1.6222913262389722089 -6.003989976 12196835.35 
150 1 66.69570244576820528 16.017104941632624104 1.6243461771122036374 -6.530262778 9057165.812 
151 1 60.772852191660085452 17.607603851397239936 1.5914830876329690845 -5.509454823 11432072.73 
152 1 64.286876576644871761 18.200841651702052815 1.6122618330302473932 -6.610084677 9472752.312 
153 1 72.537282999596968125 15.276007837338523743 1.6199270503094558293 -7.13465897 7369283.229 
154 1 70.048869154505069901 17.303166134004165144 1.6264695519960161718 -6.518266823 9409545.974 
155 1 75.742555618119254746 14.91173112504356979 1.6242970595566608161 -7.14957968 7034660.39 
156 1 81.312167447735617998 15.714550908705176013 1.6228875495562302689 -7.175676262 6614183.257 
157 1 78.321148538080024082 16.794620168732514287 1.6210170272742900899 -7.225315544 6010531.153 
158 1 87.162353958435772938 16.495236673905807834 1.6225409340969814131 -7.138147797 7287858.378 
159 1 84.08023022898728982 17.379066311698494474 1.6210868670673024283 -7.142210751 6916580.142 
160 1 93.10557715767214404 16.240348503998220053 1.6235940382849760599 -6.97722159 8167983.488 
161 1 90.150596990554674903 17.710308303255530404 1.6215546246558205645 -7.050932558 7646772.729 
162 1 96.219928761827105745 17.398594470490582609 1.6221899270534536619 -6.830932801 8538741.569 
163 1 5.4847903614385282722 20.284844414207157115  1.62304516962213774 -6.845485846 8606181.909 
164 1 96.094149798034791843 20.642705238901911002 1.625126234800766678 -6.702610702 9152753.33 
165 1 2.4192852844621177688 21.717110630235694657 1.6243199015229168314 -6.836011542 8839887.395 
166 1 11.636363976444998869 20.453228985145365471 1.6210262614246531143 -6.996565638 7736433.266 
167 1 8.5561657966439259582 21.640292890199400944 1.6233447274755616885 -6.942234125 8396683.61 
168 1 17.560213501080625065 21.067425211349139147 1.6228562072080077172 -7.024245371 7598359.168 
169 1 14.456150791790346233 22.16356374862430556 1.6239659108509982843 -7.017316936 7649558.575 
170 1 23.463966104268219937 22.425867001819490554 1.6223979477533394533 -7.017234103 7966649.125 
171 1 20.242146702477402442 22.955302589965324245 1.6209813298480097998 -7.046233146 7364377.678 
172 1 29.385465093411983872 22.331562211508863669 1.6225912270178106667 -6.838472647 8404638.727 
173 1 26.381894506080140417 23.971150736110178769 1.6331264526742212961 -6.825007276 8280284.453 
174 1 35.515004791869330347 21.368205864816975037 1.624417202757635792 -6.733053701 8536621.325 
175 1 32.583596027595625344 23.211684090778739176 1.6216685977894396142 -6.783891601 8113828.04 
176 1 41.614529225148650937 20.149604231077766769 1.6177615548890846853 -7.044850247 7148551.847 
177 1 38.788688936555423936 21.82756634532270823 1.6258455442203487706 -6.954282886 8326940.488 
178 1 47.534745449634769443 21.285076210147309439 1.6243898119605761909 -7.181649248 5957614.299 
179 1 44.368133175559918868 21.642142176960462052 1.6133127485907186038 -7.210965675 6850862.563 
180 1 54.112748634446518281 20.989583421959260079 1.6231443756299543946 -6.941065509 6702806.171 
181 1 49.50730855330736091 23.807275852837815222 1.620199752937750759 -7.25073505 4878135.37 
182 1 52.645827624105194786 23.797274211609476424 1.6224315860562898983 -7.213353474 4540692.122 
183 1 60.187502502640981561 20.801961684973861111 1.607270925730799993 -7.055671005 7069660.196 
184 1 57.197368184765672083 22.024428548915249593 1.6224435212938057571 -7.078349992 7381195.402 
185 1 65.850843249735845575 21.152937301062429754 1.626486907629328682 -6.516742377 10058502.22 
186 1 62.937801025180064585 22.572290048364390458 1.6193099095734220239 -7.075035619 6921218.862 
187 1 71.698489172137897185 20.249380239547758009 1.6218360637390643042 -6.592985749 9269912.279 
188 1 69.264660469417037802 22.394179333177490321 1.6250069132009961059 -6.414136406 9901903.367 
189 1 77.963635819637929103 19.88472291631131128 1.6193140257097400347 -7.146342753 6936029.88 
190 1 75.073304777378638164 21.319169203941303437 1.6271312804647366512 -6.668877719 9596338.891 
191 1 83.819312265512920135 20.491652993192335686 1.6201961547590355561 -7.095118487 7575551.278 
192 1 80.750602767578300245 21.498310214854786437 1.6194786940482608362 -7.129539739 7287538.223 
193 1 89.876448322888194298 20.855980001477323782 1.6206857121672075817 -6.915422991 8578240.335 
194 1 86.717319830252208135 21.989547002318460045 1.6241619567906655508 -6.954724215 8373622.073 
195 1 92.934794290307237929 22.100208650032683977 1.6250158621509818158 -6.757520451 8964960.155 
196 1 8.5810071090790334125 24.814896673081900502 1.6206072875209522888 -7.195169889 5793589.142 
197 1 2.7468105805472537995 24.872702413587099102 1.6195692628019535686 -7.211917494 5389586.221 
198 1 5.6753581024963519752 26.072468403622625743 1.6213477056244489649 -7.267052609 5931700.587 
199 1 14.215920380004293477 25.348914293650789631 1.6210872440111578907 -7.155947729 6155290.805 
200 1 11.259289476630378601 26.600869435981852718 1.623324535379059963 -7.169677311 6082850.062 
201 1 19.840285239035658549 26.07680898221221355 1.6182152464093269018 -7.194343623 6274218.814 
202 1 16.846530063778388353 27.216792981827179432 1.6246832381220936981 -7.147019215 6234706.738 
203 1 25.676292104824760543 27.150873217639851731 1.6246010185710202389 -7.067006917 5738096.86 
204 1 22.534639161155894271 27.82105273555083258 1.624804939970831974 -7.16118739 6895409.033 
205 1 32.715368403996535562 26.43756857846290842 1.6289576943374242113 -7.04093799 4834679.954 
206 1 27.504992473782426288 29.850884472505693878 1.6285181619549777832 -6.649399372 9136784.22 
207 1 30.894310045243877028 29.161234764268144204 1.632608419661946586 -6.729109366 9952510.285 
208 1 40.067219487783177101 24.703002732933502017 1.6203401432874415811 -7.279311197 3886613.069 
209 1 35.500733600437193616 27.83017366075432264 1.6112080179146452963 -7.189232955 7385647.997 
210 1 38.649993274598777759 27.54703209614062942 1.6365745141529961515 -7.197225038 5713624.309 
211 1 43.158273584239566389 24.467078107249445651 1.6140641970885178935 -7.378171746 4036649.938 
212 1 45.142297011698069298 26.731268338845811883 1.6197708004955069239 -7.430838774 3003406.715 
213 1 48.183624232549227884 26.601211163657463743 1.615646216198743268 -7.367616471 2263956.814 
214 1 57.345004637653140378 25.208750905724876645 1.6209789160763394822 -7.200027982 5538647.498 
215 1 54.442558259049754099 26.447709004040348191 1.6229815314907471979 -7.154694704 4305555.551 
216 1 62.965818239896208297 25.743627144408378626 1.6225387897175411744 -7.135421804 6709200.425 
217 1 60.011006876323605752 26.988808970976837287 1.6229118916341238599 -7.176520345 6115826.24 
218 1 71.116037476868740441 25.291689044561920241 1.6245089268057213427 -6.576747274 8459304.482 
219 1 65.686134051291645619 27.508534227712313935 1.622832969955042115 -7.094240315 7593478.227 
220 1 68.925391547429228467 27.578724882099024285 1.6204215625133451262 -7.147017158 6989925.07 
221 1 76.640461373286441926 24.213094566057321799 1.6203356641500874513 -6.888196255 8117692.708 
222 1 74.425743678150567462 26.526267358433695875 1.6237282818682423624 -6.612337701 8197087.293 
223 1 80.019188878673119802 24.549881540107879374 1.6233753666265757776 -6.717130409 9193075.971 
224 1 86.080316787391495836 25.127645811166939183 1.621674988359055769 -6.93977321 8486178.379 
225 1 82.928239378297604389 26.310896482145849973 1.6239034225842809978 -6.816687277 8561859.148 
226 1 92.047389316673175585 25.18960425145536064 1.6196277777064638226 -7.116663251 6497564.735 
227 1 89.05934526446982602 26.459371471131916564 1.6217535779111957872 -7.064422665 7669139.668 
228 1 0.56940757721356305421 27.204677563157027009 1.6242049316348061705 -7.146368373 7110915.681 
229 1 94.211375299603588473 27.492272391076351568 1.6205957539299773451 -7.142324597 6971317.883 
230 1 5.4657211445874160916 29.157943176230826765 1.6197465247191440429 -7.314564479 5148676.952 
231 1 2.3958022985823199669 29.761441302656201913 1.6178139622227394323 -7.298442187 4802306.447 
232 1 10.973045443298639512 29.767804725225637696 1.6234665168267634616 -7.213848793 5501073.015 
233 1 8.0274462531479322536 30.966763713529971369 1.6207012321392115783 -7.260993219 5458472.991 
234 1 16.507714676765615991 30.399535617909400287 1.6280805779562737001 -7.136638226 6195453.535 
235 1 13.54763977907741257 31.647824826996593828 1.6197916693121647835 -7.176371841 5638505.06 
236 1 22.140293137529877043 30.953827883017996925 1.6061987440834857299 -7.167031653 6364193.796 
237 1 19.184981338127816031 32.214908816132378888 1.627227052349230263 -7.118193797 6433073.523 
238 1 25.095380019761112322 32.285569329988923926 1.6179376941734868733 -6.731092599 7065192.994 
239 1 33.819956909023126457 30.48762670715795764 1.6215135908546487453 -7.150690354 5714704.705 
240 1 43.776087264263466636  29.3995966267190596 1.5928713543894195137 -7.430766729 3705489.399 
241 1 40.749297079637649688 29.957443879044845403 1.6271304570195108674 -7.289099792 3722363.231 
242 1 48.619612198662487401 29.652952790734794064 1.6313974451543140631 -7.319850494 3979384.968 
243 1 46.055743312814833246 31.364569975873280328 1.6101981136720040499 -7.423600517 2593217.858 
244 1 54.070703071559698571 29.655680398356548011 1.6225480620250700703 -7.142749334 5090646.513 
245 1 51.316366004897147945  31.2867703102079453 1.6184743653184083811 -7.229321495 4822274.262 
246 1 59.60910298616094849 30.138267076253242749 1.6223591144957001386 -7.222816213 5408496.324 
247 1 56.714717861224379192 31.473603080516696195 1.6231519186369907093 -7.187520608 5315627.851 
248 1 65.126248249481719199 30.572029333124003614 1.6202592658994439123 -7.309005834 5024927.866 
249 1 62.264806218753818712 31.878240639135139389 1.6230165522792210364 -7.263210911 5096820.569 
250 1 70.386691012990809213 30.382685484398724185 1.6215859879004961286 -7.176322985 6902536.148 
251 1 67.82334529273101964 32.147397015653254471 1.617222692002990847 -7.334587802 4624990.539 
252 1 76.091783468831536652 29.522261459333279277 1.6278624876398271049 -6.457742058 10302357.42 
253 1 73.447631794623319479 31.423134610920026688 1.6200132336125889765 -7.094646374 6988532.246 
254 1 82.830996720099093977 29.573492621924202695 1.6252789527016495708 -6.522925804 10054071.18 
255 1 79.51259311560394849 30.746459623188997057  1.62785014333113498 -6.376675223 10803172.82 
256 1 89.258126468383650831 29.639308524734271799 1.6252564671355742565 -6.723317132 9732017.251 
257 1 86.073717120959969407 30.942980589461498653 1.6241986625763551455 -6.608186947 9611671.508 
258 1 92.591398059557491251 30.249814695039336954 1.624151243317462967 -6.875767858 8729823.109 
259 1 7.1736694863596195404 33.993184460855218276 1.6282899026372377183 -7.021510858 8166823.003 
260 1 1.2167163797803852709 32.661291852537907232 1.6256461897532823446 -6.930756959 8613512.746 
261 1 3.9291202833942842076 34.547955259656610849 1.6207623277785936367 -6.983368411 8172629.544 
262 1 13.031286525210115101 34.817144024874380648 1.619199235340711196 -6.959605031 7803388.106 
263 1 9.8971092766083366143 35.790589619599039395 1.6201873264117325757 -7.038294603 7684369.504 
264 1 18.877477125852735185 35.406357751357774077 1.6129860580424397742 -7.100560953 6130992.371 
265 1 15.862714989320267023 36.615532891599855247 1.6169203810938006516 -6.96507533 7346706.253 
266 1 24.348469771662291095 35.515399954073579636 1.5924941238054759474 -7.067430376 4881301.235 
267 1 21.633719533200149954 37.125055724112741018 1.6223385861768517824 -7.033368832 5685216.904 
268 1 35.353824389922920091 33.236467989636800269 1.5922183289530347228 -7.357213932 2823289.726 
269 1 25.610175364214114779 38.392772060668370671 1.5225772353013891092 -5.202049563 1451081.874 
270 1 40.737937977786863541 33.044746283959852917 1.6049751579015845149 -7.335556982 3189259.67 
271 1 38.064394465685580826 34.617459505289062349 1.6038280665821906812 -7.359191606 2981988.982 
272 1 46.006249679381632234 34.380816297075369903 1.6155679114136798358 -7.33544389 5025057.257 
273 1 42.985391579379353288 35.180033373747711778 1.6137479675422632397 -7.310426646 4846737.144 
274 1 51.406781584321841194 34.464030143185588884 1.6198506155107899041 -7.244552497 4645035.655 
275 1 48.647637418867539338 36.079623113497852671 1.6167599835849504331 -7.197098826 5453440.014 
276 1 56.757391735899297203 34.661327394879783981 1.627639549869948743 -7.240556235 4683936.762 
277 1 54.003643828811441097 36.159094022303861493 1.6191686317298805697 -7.275570281 4695811.629 
278 1 62.26542225793530605 35.025203492867099442 1.6213337973366737099 -7.245804978 5487066.332 
279 1 59.407256213702048342 36.355699136099190127 1.6219869754624383074 -7.262299176 4883295.709 
280 1 67.941022434607248215 35.226574969119837988 1.6219481431535358595 -7.192322141 6753042.433 
281 1 65.050555338544725714 36.586641418626392408 1.6195801743564035569 -7.208674072 6123348.356 
282 1 73.768628099703903445 34.604300404040039041 1.6239550443789871892 -7.002873231 7705760.895 
283 1 70.961785337033376209 36.334128632218892108 1.6218543141594818913 -7.068873769 7154541.884 
284 1 79.820406432189400903 34.033007321967382097 1.6231544857986666131 -6.753168227 8694246.616 
285 1 76.884484126008274529 35.696910152083560774 1.6223961143024372422 -6.908311096 8165175.464 
286 1 86.253243922892508522 34.203249815754773522 1.6233980864205563854 -6.516841055 10097382.84 
287 1 82.987701517854389976 35.356167900126749259 1.6248950950247860181 -6.683160543 9431521.034 
288 1 94.749324739485217606 32.740804904904223349 1.6174422261892744679 -6.920702092 8154900.312 
289 1 93.322369424883916622 35.61840500166393042 1.6242552321467067511 -6.15946347 12190667.07 
290 1 89.552906550167250543 35.677924012445025426 1.6285323504675335293 -6.078928472 12694543.03 
291 1 3.1740427083180633439 37.645509448243387851 1.6275537730575766471 -6.244396318 11269276.98 
292 1 96.391623685760464468 37.452786075752683814 1.6254848087363247267 -6.247144888 11405277.97 
293 1 9.6948579921478685861 38.956393690868374335 1.6242214180962863956 -6.724631887 8914959.375 
294 1 6.2912664003019918013 39.435746615564134743 1.6198365602581343836 -6.547116001 9568716.88 
295 1 15.881897738233725192 39.847113158899730934 1.6307488325460239853 -6.761595272 7878406.996 
296 1 12.67917811187226107 40.618364061294222722 1.6221709323127004865 -6.862708244 8266672.558 
297 1 21.806320776904264847 40.443111964073239051 1.6164036178073000194 -6.779348155 7829419.445 
298 1 18.754221375346556755 41.810528354020576103 1.6279337792080545988 -6.685963503 8169666.09 
299 1 27.900424759414285347 40.573448462912701018 1.5163232394952896875 -5.711630938 14151820.06 
300 1 24.825683064410743128 42.115304711818431826 1.6274394862533254624 -6.585340919 9173887.487 
301 1 38.424617639377977696 37.725567725476018666 1.6127619126800443183 -7.018145441 7719542.695 
302 1 32.573156345491405261 40.623370732441642872 1.559997257057655462 -5.240416601 3416015.988 
303 1 35.906942614894290955 39.892206831893652463 1.606546365174058133 -6.726930385 9103427.32 
304 1 41.71665350444988718 38.032887801631360958 1.6241144889433842824 -6.973070597 8349098.583 
305 1 47.553273090301800607 39.040575666124084364 1.625432212853112679 -6.994690457 8278043.423 