ITEM: TIMESTEP
902
ITEM: NUMBER OF ATOMS
3456
ITEM: BOX BOUNDS pp pp pp
0.0000000000000000e+00 9.6883402367861862e+01
0.0000000000000000e+00 8.1705996432429529e+01
-1.1763580788950838e+02 1.1763580788950838e+02
ITEM: ATOMS id type xu yu zu c_peratom c_stratom[1] 
1 1 5.3074309819297385005 2.9077784597644424913 1.6232583473741399871 -6.894847869 7950060.506 
2 1 4.9838918077489209324 81.373550935025349418 1.6233163730847637307 -7.001203372 6602818.147 
3 1 96.485366246330457329 2.3028230707059118565 1.622591175093765159 -7.047874131 6588109.859 
4 1 96.180533948157346913 80.826232702915376649 1.6213290282732448766 -7.012415402 7682871.207 
5 1 2.3075092731032667004 4.2254548630262682707 1.6240935709134531884 -6.977916948 7054906.201 
6 1 2.2364256579557717508 79.489617679806841011 1.6221840612336408949 -6.99459325 6791402.976 
7 1 11.227298427745752818 2.8210045343623444403 1.6229078668308656308 -7.045584906 7653117.04 
8 1 10.82314204860070106 81.376317204796876581 1.6215753903362783994 -7.188174757 6114714.508 
9 1 8.3538915609789725636 4.3926894720764266822 1.6253058510129836378 -6.899225966 7878533.169 
10 1 7.9028717484133208515 80.048357267623387656 1.6218760120785105094 -7.200757387 6376818.344 
11 1 17.084269790303086012 2.2869280988480982231 1.6242195508113759228 -7.119931377 7200772.212 
12 1 16.447867649871298568 80.918474263629491361 1.6188644665062810191 -7.268909943 5361362.178 
13 1 14.321625848839280692 3.9300955477725301179 1.6208844820930869979 -7.085017788 7461376.134 
14 1 13.525343109047691215 79.676500870179197022 1.6232627914704580441 -7.219668433 5766957.618 
15 1 22.832453657562830074 1.8204199861310101927 1.6218264179814572135 -7.060597196 8078006.639 
16 1 21.865462685624574846 80.584230466802907245 1.6206537166660504035 -7.297601685 4660835.419 
17 1 20.117980929868242157 3.4801994502381092822 1.6195461284074843533 -7.117637309 7295274.714 
18 1 19.042040148263001953 79.165053146837692566 1.6246092875265891742 -7.276665089 4930456.816 
19 1 26.087178052440332721 2.2960851623313893732 1.6216653444418716035 -7.019316071 8169594.231 
20 1 28.779282391254803031 0.46374320097422966347 1.6258188592432023523 -7.02101396 8268357.005 
21 1 24.415592977847534684 78.946212410629541978 1.6117718589228549053 -7.366922705 4485052.988 
22 1 27.489869854540174288 79.353791100477309328 1.6225096252530442076 -7.349566789 4365873.414 
23 1 32.899901408209643705 3.8522599115744617926 1.544069992568253058 -6.953848548 8314351.776 
24 1 32.04504194880663448 0.74147171678180923138 1.5451961792217772107 -6.970593298 8897473.159 
25 1 26.919438973696941275 5.3310703795077767353 1.6214766586858411213 -6.929433947 8677564.918 
26 1 30.233495751830680831 5.7567529735233753385 1.6241381718259044753 -6.942594363 8460753.758 
27 1 36.154493749248963752 3.4519465024311526413 1.6244748046262353913 -7.02789672 7578966.139 
28 1 37.959088866083440905 0.76119712006058326548  1.62498883019865481 -6.539442493 11131748.39 
29 1 35.007418874431678546 81.080176873597778808 1.6169169354734163058 -7.006459376 8206296.674 
30 1 38.166138717485061704 5.7729025215312370634 1.6143246049958166477 -7.307792256 5213921.971 
31 1 41.196327069883992067 6.433547686783804842 1.6200552915661308173 -7.154343668 7374137.321 
32 1 44.24631699930547768 5.3202450305984250178 1.6238837350370811663 -6.906455736 6651306.894 
33 1 44.52675058215143622 2.0026658506095382783 1.6266827898454740975 -6.493578922 9641979.85 
34 1 41.478350411289667932 81.86766858058386731 1.6272528249525495259 -6.411924344 10406304.06 
35 1 53.950445659865934545 1.854926356082065686 1.630853397122323134 -6.159696963 10272157.04 
36 1 54.193009919468224211 80.042598470800072619 1.629841659506050755 -6.331057316 8603778.806 
37 1 50.638748457017506155 3.2497405215702594994 1.6315609279680660659 -6.103036423 9514640.641 
38 1 47.852069691028553677 0.96385857127032714686 1.6280428487845803875 -6.346659514 9021714.554 
39 1 51.387157645762790992 77.824418486637199521 1.6308829000352620398 -6.26611264 8679296.303 
40 1 48.170480562582106643 79.229584131384569901 1.6265910237899257051 -6.416631225 8998540.596 
41 1 60.022563699580196328 2.1266681529442115206 1.6216993009968991846 -7.008531686 7751840.41 
42 1 60.173578376708498183 80.64804420051792988 1.6219867241252845513 -7.083459927 7221398.623 
43 1 57.086830155565237988 3.7081405215332927661 1.6304688867109329298 -6.37994062 9291339.316 
44 1 57.456601297607988954 78.849358584809195349 1.6247758353818644306 -6.766695981 8742172.096 
45 1 66.060224244612882671 2.2160981166781161811 1.6219108291829802404 -7.130189442 6972832.825 
46 1 66.075083480046046702 80.903059834142737827 1.6175066153407329228 -7.254977329 5535472.828 
47 1 63.057185813848995792 3.3065260593459484539 1.6058168873411726718 -7.097987986 7776088.764 
48 1 63.246848490518473795 79.590338734960880629 1.6209823396255340633 -7.12671818 7293019.412 
49 1 72.189044328723525723 2.8274922173818164417 1.6228014709766709345 -6.906556461 8307229.069 
50 1 73.898843633323181734 0.059347640136474831551 1.6223310112658866355 -7.027911677 7487250.511 
51 1 68.90565555737714476 3.6373875625728322447 1.624258302936341769 -6.880727162 9026571.433 
52 1 68.744629362852990084 79.247021953981686693 1.6217549965441953042 -7.229137862 6675472.709 
53 1 71.913901651179926944 79.328182863688965654 1.6202701220377142555 -7.243924869 5844922.271 
54 1 79.230685360486603486 1.9755757429814475579 1.6230327970359814671 -6.973044197 7479424.019 
55 1 77.159076020940020157 81.164515389512601473 1.6235135110874050479 -6.95519261 7067743.654 
56 1 74.360376167845558371 5.1871082866504023556 1.6214990866222795951 -6.961106191 8563967.033 
57 1 77.709179631733832139 4.8839852068974876076 1.6254383149628739424 -6.910207065 8053777.501 
58 1 82.518902006653547687 1.5251090441470265269 1.6220588350155329405 -7.027075676 7726559.47 
59 1 83.861096505745820195 80.322788055117072759 1.6213520139690384969 -7.070035212 7322621.48 
60 1 78.459495522892140684 78.121049053288558639 1.6261409638786816778 -6.857430526 7825428.779 
61 1 81.812361607327616753 77.836459724756053902 1.6231511798740785313 -6.963618849 8386331.614 
62 1 90.547507398554131441 2.0631402283321400581 1.6191187065350107765 -7.188912693 6420040.999 
63 1 90.152551478937041907 80.667038117138488929 1.6231006105624632418 -7.003076148 8223686.306 
64 1 84.733801597375915549 3.8779419482081212145 1.6227333121566223095 -7.021515043 8038651.71 
65 1 88.049318331398197301 4.0186255952771521294 1.6230291468593076587 -7.03894783 8536134.812 
66 1 87.037639365704166039 79.520955589667011054 1.6234154804325109378 -6.978246261 8687089.382 
67 1 93.486411447712256972 3.357304075367416818 1.6175011108746273347 -7.184890982 6779800.653 
68 1 93.17267311102267513 79.403157153055090589 1.6225902625735841855 -6.982006015 7958100.042 
69 1 9.1498141630721772088 7.5434949546396898867 1.6211399290885821767 -7.081517513 6086180.241 
70 1 1.8767990973914634445 7.4474310127454499408 1.6213804766873005647 -7.057023567 5545095.175 
71 1 3.8903798127862918577 10.045844118540072643 1.625782428849226191 -6.91407933 8048246.023 
72 1 7.250392929321180624 10.15603786805015929 1.6246589763708159104 -6.935371637 8157878.311 
73 1 15.01901734838414626 7.0124750342616897214 1.6220346210250968788 -7.108150209 7293321.238 
74 1 12.217847485067508728 8.5560519201964364555 1.6206575780701151235 -7.158683984 6917787.846 
75 1 20.831908704557285716 6.525351409238674627 1.6213609334111971361 -7.020385698 8227303.671 
76 1 18.064204584793987607 8.2118219425505394327 1.6210613639125357466 -7.066767703 7558609.153 
77 1 24.102184982120625989 7.0353329681378768967 1.6208238760146784774 -6.962372358 8491721.376 
78 1 30.913504124652572358 8.8546512539968116329 1.6204544106003642145 -6.981832205 8341761.842 
79 1 24.761764804342039525 10.113956688718642951 1.6216059624268239769 -6.858812431 8931775.676 
80 1 28.094154304885641693 10.511197813737986451 1.6213270626794276108 -6.919166455 8783470.419 
81 1 37.057796991404536868 8.6238730971609012244 1.6180110362153106163 -7.164510323 7402053.778 
82 1 34.086563717204192869 9.8230856601753622215 1.6234744732646064769 -7.013481642 8425427.895 
83 1 40.081092487469312857 9.3380645120015941529 1.6150219300464281336 -7.281386811 5153490.078 
84 1 50.054777333057401734 6.8225401077312239906 1.6319241983169820998 -6.116577837 8544381.985 
85 1 46.658657073275776384 7.6564517196582695391 1.6256903084950020677 -6.596945938 8591935.033 
86 1 58.051489703712817914 7.0207979362843673243 1.6227942557729366779 -6.709422397 7233401.97 
87 1 52.463389775946360771 9.5862546176611242998 1.6298517871383917388 -6.185391584 9873697.053 
88 1 56.053709821884126541 9.6581756893696155686 1.6266205552969454917 -6.487902197 10307386.24 
89 1 63.843706633507004256 6.347836733847192825 1.6068016889250611445 -7.054667544 7876829.115 
90 1 61.223432196918217585 8.2251327470540420705 1.6215166244765042425 -6.885747516 7877093.239 
91 1 67.106854277123815677 6.259538609726228664 1.6179544546966124763 -7.077008895 7801920.354 
92 1 69.25982614587994135 8.5022061178334968901 1.6197630941269169913 -7.186743501 6023898.494 
93 1 72.372292757730278367 7.6952999504367332051 1.6205517192519489633 -7.14284652 6362008.973 
94 1 83.159100428245594117 6.6426167276590160071 1.6225635009966943301 -7.142155295 7025364.87 
95 1 79.95625980313849368 7.2793155024054074786 1.6236523313799062773 -7.02780598 6773258.014 
96 1 89.987469980652761592 6.5131669276799240009 1.6209533517400065428 -7.241714005 5527182.993 
97 1 85.330859634082727894 8.904033056217320663 1.616115915241307599 -7.295918228 4855264.273 
98 1 88.447711701445143717 9.1474291990836675836 1.6221327715931721514 -7.303356612 4475806.289 
99 1 93.145210838044476986 6.4382675840925562838 1.618197732408042544 -7.202183387 5906445.442 
100 1 95.70063408655511239 8.3705724640133229997 1.6228319758775437975 -7.193532001 6129420.516 
101 1 95.690008775401693697 11.519985957160077561 1.6208400258282851247 -7.193033026 6401201.714 
102 1 1.8343131712180493764 12.578833136027856909 1.6202978749974614736 -7.071952773 5684018.809 
103 1 12.482652077092399878 11.685539820737218975 1.621504640952025289 -7.03626857 8131694.383 
104 1 9.3881685541384030103 12.650344670129397784 1.6202091882085452035 -7.040344559 6653530.022 
105 1 18.498060485072944203 11.363650035353828116 1.6245880123256832839 -6.76592925 9161704.801 
106 1 15.523410901610585455 12.992812573800762266 1.6233325925318826677 -6.878667332 8372157.628 
107 1 21.884363400127309518 11.817836425772608067 1.6237359685925534247 -6.806850405 9284004.683 
108 1 29.057781854795919685 13.494618236452781801 1.6197379207065145668 -7.094496453 7650593.86 
109 1 23.111059253688473802 14.708261905597645125 1.6187103802071300951 -7.179155525 6388843.598 
110 1 26.297480418038688299 15.102833754517119402 1.6215574720020728972 -7.146656326 7302434.802 
111 1 35.023273458891722498 12.849017936045886046 1.6207312300518241788 -6.870455013 9026901.173 
112 1 32.172482384775662467 14.470591858127280105 1.6221247896090207341 -7.035646045 8052983.571 
113 1 41.957050169130866379 11.805973550795728855 1.6041943268100831155 -5.600658131 12562802.12 
114 1 38.364544809061570163 13.465560996119185333 1.6129292063831952575 -6.665799133 9328870.259 
115 1 45.380392191403778668 10.83534624903682797 1.6166940003199115061 -6.512116871 8903972.625 
116 1 47.694988390970415537 13.279621678913766658 1.6254310133858129728 -6.527058786 9835918.944 
117 1 51.228941816310694435 12.794684601564009441 1.627104438259978636 -6.369410357 9656273.687 
118 1 61.768727338531498106 11.478101374318288919 1.6288297254297294803 -6.170921617 11667696.29 
119 1 58.400052154517219094 12.167345006421861342 1.6188988906022738767 -6.689896326 8228608.186 
120 1 68.232367310193950516 11.465334906005237414 1.6188842028850956023 -7.116371228 7513453.044 
121 1 65.281814236859460721 12.884394898422749876 1.6309383973482336483 -6.274436765   11227303 
122 1 73.463048070674460632 10.553626854267537993 1.6145298252912960724 -7.354249456 4640459.487 
123 1 71.139097619068152767 12.560877977788907245 1.6167503703033920814 -7.325522415 5419934.628 
124 1 79.230931946577129565 10.444441454268329039 1.6249424790457001055 -7.137097953 5396826.604 
125 1 76.316729838190468627 11.802726111796689068 1.6225091648339224903 -7.22463458 5723160.977 
126 1 84.571145719747619296 11.860055721506356008 1.6165364700687394617 -7.354511927 4686332.786 
127 1 81.572207357738292899 12.60403665238635007 1.6203719136270262613 -7.280091559 4326403.103 
128 1 89.906151816328375048 11.901976957338325391 1.6215338536602321717 -7.231291417 6291975.536 
129 1 87.229355734932241262 13.449005716994550497 1.6188545174331778753 -7.35275754 4450847.415 
130 1 92.88805588505753974 13.068597378762255801 1.6230983611743168282 -7.176155193 6420340.354 
131 1 8.8106168213425881675 15.825959677743078657 1.6258935940171967971 -6.707373567 9274708.96 
132 1 2.3577165396269044173 15.80035193008912664 1.6273327067173639637 -6.719733655 8943543.874 
133 1 5.5702928372038931215 17.050610373655469942 1.624430673327660557 -6.659516618 9521330.063 
134 1 15.140525194303140921 16.209981147083418307 1.6233463868208948266 -6.817036942 8693243.989 
135 1 11.905901034283472129 17.277053184520589468 1.6244966849306443635 -6.761411928 9134262.165 
136 1  21.2958983819934069 17.320504532052929392 1.6243697229357494383 -7.006165797 8586132.108 
137 1 18.014883767957975635 17.956447958693274813 1.6242282524816735734 -6.880638039 8675689.761 
138 1 26.750165394899276805 18.151250131999354664 1.6192211197959052171 -7.19564252 6777149.658 
139 1 23.798165199855986884 19.299556123526279805 1.6193416023437514628 -7.213618475 6173639.042 
140 1 32.536255544678027718 17.592578215074336612 1.6198040934409310143 -7.026882913 7744674.288 
141 1 29.738565170192767795 19.30247731565725644 1.6238994263928721029 -7.088219294 7186588.643 
142 1 38.70744903692808947 16.601189464395879725 1.6030428767754014707 -6.624126474 8808192.944 
143 1 35.719142976911420817 18.363643714553635533 1.6236918741020653911 -6.784396283 8627554.385 
144 1 46.125396596700092289 16.293150131436455297 1.6210918217866090441 -6.316387783 10941079.89 
145 1 42.166523814075731025 17.186993998837071018 1.5948066226988273364 -5.45948763 12873189.01 
146 1 53.682875258389884721 15.345761874403127223 1.6282311810054932444 -6.279645625 10871317.47 
147 1 48.653115904994443497 18.523943545126169141 1.6230874471145722016 -6.784233472 8958465.375 
148 1 52.075787880938079866 18.305860991650465763 1.6248675650610877597 -6.713066479 8240353.444 
149 1 57.385719752428755669 15.324339902917040845 1.6223659993150696401 -5.969455601 12509212.55 
150 1 66.691138619726814341 16.019793218250196531 1.6243664140332516599 -6.527284109 9086963.503 
151 1 60.758868048941842233 17.618885618620112155 1.5908417510131571682 -5.493813592 11510572.45 
152 1 64.278548522370414275 18.203071141938394817 1.6123635750726139637 -6.602659667 9543723.823 
153 1 72.536510734517193555 15.276109681846683941 1.619974082705419427 -7.133497812 7379500.474 
154 1 70.046994313583894609 17.303121267882648482 1.6264830954902385063 -6.516018378 9432678.881 
155 1 75.742250812488364886 14.91142495758603026 1.6243639424239870728 -7.14908506 7039392.127 
156 1 81.312187518184245505 15.714568240292955181 1.6227906319007610048 -7.175459821 6614939.06 
157 1 78.321111835772214249 16.794415547123374921 1.6208487766039911815 -7.22503308 6014690.439 
158 1 87.162825652163675727 16.495134559834820465 1.6226620920134759984 -7.137788586 7287899.214 
159 1 84.080501582838977015 17.379044747291136019 1.6210663162255081193 -7.142000761 6914675.721 
160 1 93.106587094494997814 16.241551753226474375 1.6237368013484561047 -6.976258491 8171913.761 
161 1 90.150976129823462202 17.711021096803968078 1.6215776216450359382 -7.050459755 7648034.654 
162 1 96.221205672417696064 17.400944669020081079 1.622248900442488484 -6.830002695 8539986.544 
163 1  5.49269441941891845 20.293869081972125912 1.6233089737434494015 -6.834601673 8641060.323 
164 1 96.097099192848958182 20.645857513485520229 1.6253913327350002493 -6.699119374 9170000.151 
165 1 2.4239564332748320119 21.724509387249284487 1.6244907342015222351 -6.830046102 8861668.361 
166 1 11.663492229316242188 20.487333584012475285 1.6216054811837654626 -6.960891269 7875296.818 
167 1 8.5694370382872993019 21.659140696945257787 1.6234878913293111502 -6.920631499 8480523.601 
168 1 17.598457877582855957 21.138134389103623079 1.6216731712709906432 -7.018090611 7565272.933 
169 1 14.491346984547885057 22.232981137558493145 1.6243544048889628773 -6.981868337 7745644.37 
170 1 23.495081301574209931 22.377941426695453941 1.6214200485708631927 -7.024083763 8060461.589 
171 1 20.289662516151956595 23.019800284101670229 1.6226000972887124618 -7.047728235 7516648.948 
172 1 29.532111243162052716 22.466766416263482142 1.6196339340977585763 -6.918888524 8294421.497 
173 1 26.449801874400950652 23.824305911628396615 1.6257572173277290428 -6.940367081 8359000.946 
174 1 35.521379254323697694 21.578252309122927244 1.6210482225774687226 -6.859341471 7735672.837 
175 1 32.672036959599587647 23.447746145116546757 1.6217562601821542412 -6.891267002 7702634.58 
176 1 41.470432611098480891 20.344617494095952992 1.6128608176034073818 -7.039814135 6565723.084 
177 1 38.722430633933257127 22.143350544563322302 1.6235035269028119664 -7.037137532 7352819.06 
178 1 47.320893060826428211 21.462173492809466069 1.6234845689162611393 -7.131709589 6321945.996 
179 1 44.133736153230998411 21.969264918524945784 1.6222570953116914882 -7.184114647 7005041.099 
180 1 53.963512323221081601 21.105514326242172274 1.6239462580730126273 -6.896465126 7182063.144 
181 1 49.223407143131538533 24.03997467872479632 1.6239613423227126088 -7.198147241 5789290.98 
182 1 52.430076064043390716 23.932483108243392422 1.6217295723674012287 -7.1452075 5776930.486 
183 1 60.143268558665880619 20.815648783500900976 1.6090240008536218497 -7.005932706 7524972.436 
184 1 57.122946312428894089 22.056155948290449231 1.6240624059593975481 -7.01060485 8106264.291 
185 1 65.840341273672962075 21.156688660452111606 1.6266572673386576753 -6.506483871 10133623.03 
186 1 62.919281871438549558 22.573767691826233772 1.6198812042141284007 -7.053482771 7098649.742 
187 1 71.695987603264498489 20.249849849683741354 1.6218372825750742017 -6.590827536 9286576.81 
188 1 69.260443167791109431 22.394194725039309191 1.6251679486714123435 -6.407503133 9949836.586 
189 1 77.963346031558998561 19.884854758171950806 1.6193570211210113197 -7.145433421 6946713.648 
190 1 75.072295404226295545 21.318479668175587705 1.627141641089443258 -6.667402563 9606892.86 
191 1 83.819744566114309237 20.491742406487450268 1.6202417371234709709 -7.094556593 7576847.832 
192 1 80.750704392809112164 21.498231074744882818 1.6194617251244265432 -7.129049117 7290839.177 
193 1 89.877231784458274433 20.856944656276738215 1.6207027293043692051 -6.914722264 8582128.807 
194 1 86.717753967579483287 21.990642116978765586 1.6241326897181811439 -6.954269656 8373874.957 
195 1 92.936038173130341988 22.101588878345648226 1.6250497237214025503 -6.756122576 8970442.538 
196 1 8.6086271540147709658 24.842573206387069007 1.6211443438182315813 -7.171238586 5911837.127 
197 1 2.7608838027718349828 24.88216861926325052 1.6196193893814980758 -7.204966843 5469401.069 
198 1 5.6933358373890277093 26.089181559164920543 1.6207678505697331595 -7.256893305 6027786.663 
199 1 14.25789312186467761 25.434812743922353917 1.6208669374277222541 -7.143644713 5978949.152 
200 1 11.291553702764407063 26.652003417260765161 1.6223915947123164205 -7.143969596 6098896.068 
201 1 19.82291301845750553 26.114396574400128515 1.6179115916286308519 -7.265714092 5545353.86 
202 1 16.88799687560539553 27.315372307532307161 1.622481307463388811 -7.174846024 5741092.758 
203 1 25.587612351498208341 26.871774372078146342 1.6168486433558948434 -7.238953268 4843668.093 
204 1 22.552167444037934274 27.693618579335872454 1.6194173150827526619 -7.285325445 5652031.071 
205 1 32.586474480899646267 26.615947423590096577 1.6176194640128125357 -7.209535124 4086802.976 
206 1 27.360298862825196409 29.510915360289342146 1.6432343544764407284 -7.02898023 7203592.462 
207 1 30.606881062791469361 29.08065402188485038 1.6302003449745312569 -7.091921637 8068152.522 
208 1 39.678407864488683288 25.115310077533330002 1.6156520628426975783 -7.303114013 3549659.771 
209 1 35.08214005293447002 28.38621631779387755 1.6241229027599513035 -7.33737764 5370204.537 
210 1 38.159563415805934028 27.874535834484508001 1.6305978400502003645 -7.297790383 4789617.219 
211 1 42.75585394431487174 24.729883237607410251 1.6189540309380663352 -7.336605657 3961132.789 
212 1 44.637344086756534978 27.07571033472536115 1.6212050522509686701 -7.387599696 3573505.605 
213 1 47.709893134250087599 26.803606258863464262 1.6173137276668783091 -7.324779584 3348980.72 
214 1 57.302501446283713449 25.240572895654146635 1.6200988990488474073 -7.192466539 5739965.178 
215 1 54.390001644131800163 26.486264905746331522 1.621939926896668549 -7.14372217 4687966.166 
216 1 62.949922074778534409 25.749218408616172837 1.6228377997695107027 -7.122713385 6832172.066 
217 1 59.987813669418521556 26.998196840450727763 1.6224941568028556915 -7.165181832 6275860.59 
218 1 71.112966712276985959 25.291897179120319095 1.6243891996144632639 -6.574610784 8478426.739 
219 1 65.677864828584361589 27.510780671336714676 1.6229607103942058632 -7.085725228 7664377.323 
220 1 68.920302817723111843 27.578335743866578156 1.620530852012800338 -7.143314944 7028330.565 
221 1 76.640023237364090392 24.212682430235094699 1.6203661340260875345 -6.886847223 8125848.482 
222 1 74.424516459979471961 26.525522227633690164  1.62378519091372997 -6.610629442 8213110.725 
223 1 80.019315061545654544 24.550126428372944787 1.6234271392215193774 -6.715722883 9198325.07 
224 1 86.081721852074480239 25.129016278183630817 1.6217546696551663477 -6.937918815 8497519.344 
225 1 82.928780243926013327 26.311360780763706657 1.6238353369176177221 -6.815694809 8564744.87 
226 1 92.052234395931392896 25.192759276079801367 1.6197547118120214638 -7.113730562 6528425.538 
227 1 89.062130293885203969 26.461016526666703896 1.6216914099843466879 -7.062081032 7688507.529 
228 1 0.58389758868451913099 27.216741945730650087 1.6244576215633028671 -7.135748838 7219129.867 
229 1 94.219926777056315359 27.495617878599315276 1.620934712439080494 -7.135236029 7046667.568 
230 1 5.5151349796860014152 29.184217534180781684 1.6215524191665571241 -7.274979059 5703916.54 
231 1 2.4265423183080208069 29.771483017320498732 1.6180255552045987866 -7.280803098 5028070.357 
232 1 11.130098787505730229 29.849999431143601214 1.6239701909753281317 -7.13103396 6311909.868 
233 1 8.1260810772641249855 30.971795591737937059 1.6194837371196035836 -7.216029582 6058945.595 
234 1 16.785472617251709693 30.499674945088283806 1.6220380209020499596 -7.14515942 6327586.173 
235 1 13.807937577402839224 31.686447436003454925 1.6196557016779595806 -7.134211064 6245245.031 
236 1 22.423744376769217723 30.796854429462186431 1.6230390949879478502 -7.258759274 5768099.233 
237 1 19.56054438410901497 32.172716409501205703 1.6223779358312619969 -7.164065189 6112294.468 
238 1 25.325971445260435644 32.068435800052242257 1.6278415535729644503 -7.069298339 4845697.13 
239 1 33.219171210252412152 30.835747955479163807 1.6051074305815156151 -7.282179575 3816273.381 
240 1 43.202367869702754888 29.743175683069718929 1.6155571275220534933 -7.39904332  3824415.1 
241 1 40.175474128342798963 30.239254396919097445 1.6253488408355649675 -7.385459069 3219481.963 
242 1 48.457291923702705105 29.800355937449754862 1.6188832768788108396 -7.326622174 4689665.234 
243 1 45.763605187257283546 31.368547074088176885 1.6167549218572268011 -7.356407561 3937611.967 
244 1 53.998307600180964982 29.694872537245768029 1.6240743212633244053 -7.129657276 5455431.621 
245 1  51.2019206814583967 31.291333767993943837 1.6219479411971040594 -7.20570696 5231263.211 
246 1 59.575213115728260505 30.150392839276296542 1.6218169667984854154 -7.212313458 5540861.807 
247 1 56.66639081246990628 31.472014501934406638 1.6207319718017110244 -7.179993547 5546321.484 
248 1 65.111706399623940911 30.575909354528061357 1.6205179171325458931 -7.300045154 5168928.129 
249 1 62.24246755727102709 31.88042584148181291 1.6213541705874763288 -7.253946633 5231268.641 
250 1 70.382163310472691364 30.382798872586572969 1.6215509431840431365 -7.173396889 6939559.321 
251 1 67.815881071173933492 32.146829370037018236 1.6172056511253218858 -7.329622042 4710209.413 
252 1 76.090297455512569513 29.522000705922017971 1.6279945328202209964 -6.455705412 10314031.06 
253 1 73.444795895095666083 31.422434973289991689 1.6199581692546960454 -7.092685222  7007775.1 
254 1 82.831525224918834738 29.574260340873408381 1.6252846369971807317 -6.521017047 10063194.86 
255 1 79.512051731762895201 30.746317614241167604 1.6280838519344524862 -6.374615135 10813096.25 
256 1 89.261857946885598381 29.641304565962744988 1.6252285206357306446 -6.718825568 9745591.841 
257 1 86.075340359676999924 30.943368536879106045 1.6243333314647105947 -6.606123956 9620418.22 
258 1 92.598377619379363068 30.253720706909000171 1.6243230604014236018 -6.864066625 8779725.222 
259 1 7.4501270674258064375 34.057532118025243051 1.6256532329610462462 -6.827830239 8990128.636 
260 1 1.277958014424662947 32.68766484057090338 1.6268687861673563066 -6.807068742 9148989.121 
261 1 4.0899108444841845156 34.554635015346306659 1.6191189614851344558 -6.798000293 8991304.479 
262 1 13.58026381894616641 34.881161385306704403 1.6257290331916691706 -6.835626098 8722939.618 
263 1 10.341584860676872992 35.76938784206969757 1.6201343859356152066 -6.868899537 8662496.356 
264 1 19.557081892267163425 35.356483801376342058 1.6141957519633820528 -7.144997101 6073920.329 
265 1 16.536977683099060243 36.531843998997793221 1.6147450804026441951 -6.95798633 7504464.416 
266 1 25.075717101087860783 35.282496717689966204 1.6339251678428132752 -7.180848189 3842033.251 
267 1 22.394720051124480165 36.866041782976687102 1.6272072638002956779 -7.111592515 5220731.221 
268 1 34.381693139647225621 33.763649451015588454 1.5966256666427491862 -7.305596868 2844732.96 
269 1  27.4963822448972941 37.347832899209237212 1.6069188954450321916 -4.942536916 1589650.744 
270 1 39.706885632430619637 33.22467272653599224 1.6252678077002731261 -7.43099123 894233.5461 
271 1 37.218429752773644736 34.910157444885491884 1.6214064830955057239 -7.287835138 312933.8006 
272 1 45.155040767785735056 34.345628294202832365 1.6164809764757839261 -7.294226985 5442808.514 
273 1 42.116990202693358469 35.093793214537448932 1.6138297980299307621 -7.355876238 3889590.867 
274 1 50.77171689105706065 34.453560141785004589 1.6246451940732200558 -7.126004971 6532271.299 
275 1 47.857988757825111747 35.908250927478114534 1.6203049169002219365 -7.155173103 6372848.015 
276 1 56.448977733294505299 34.668470346670979154 1.6246750221191639252 -7.115277654 6555213.742 
277 1 53.527198629916568962 36.067448929297249549 1.6192192005995227344 -7.162934708 6321130.828 
278 1 62.176516219787949069 35.034466892946767302 1.6227871103380504536 -7.157728842 6667837.14 
279 1 59.229670975421029766 36.325571255956525363 1.6203849813727977391 -7.147214831 6502772.699 
280 1 67.92693254999535668 35.228358100166175859 1.6225059858571015958 -7.173133694 6941445.482 
281 1 65.014523151062945772 36.578101328375801415 1.6215956979582362152 -7.157729722 6711488.203 
282 1 73.764709028166961957 34.604176704877566806 1.6239917970799504499 -6.99925288 7729592.962 
283 1 70.954468857261048242 36.332848529364440537 1.621948111725743269 -7.062369302 7210364.084 
284 1 79.819542027605123735 34.032982142394459402 1.6232141166188884807 -6.751643067 8701034.206 
285 1 76.882271494921312183 35.696442584859148894 1.6224120729451534384 -6.905955272 8179118.966 
286 1 86.253936702244686785 34.203356167278307964 1.6232219043975251171 -6.515520819 10110214.67 
287 1 82.987579341160412127 35.355833458278006276 1.6249252479291400597 -6.681751066 9438406.677 
288 1 94.772369636281354133 32.742802829088141436 1.6188147782396078433 -6.876384142 8339417.567 
289 1 93.33333101513811414 35.618402299441605408 1.6242678797408549585 -6.138303469 12286536.95 
290 1 89.554919049935989506 35.677193878973383789 1.6280799218687698193 -6.072549606 12735708.25 
291 1 3.2240658208040233745 37.638198662097181568 1.6259084471855180798 -6.173107188 11768543.17 
292 1 96.410073845922511282 37.447492101733573122 1.6258004215723922403 -6.208644612 11697185.18 
293 1 9.8964489844250245199 38.929742057961782109 1.6255538935315423377 -6.496565354 10176941.81 
294 1 6.3937756700848860092 39.392470968840584078 1.6234216241714309881 -6.430762315 10340338.79 
295 1 16.427528902512396058 39.750025594795076245 1.6244276876791958752 -6.59694811 9449630.504 
296 1 13.06216145672132356 40.476322018122495194 1.622280758945467305 -6.598297753 9667725.305 
297 1 22.726314084252216219 40.135244364059531108 1.6395450031598250984 -6.579286553 9464256.354 
298 1 19.518580280055804366 41.433430572799601066 1.6207825129749624526 -6.56589567 9317418.317 
299 1 28.876140935110679919 40.292456384506067479 1.6307461321971410406 -6.532210371 10702350.56 
300 1 25.846795490839010512 41.745645037981581993 1.6257419935496015828 -6.619328156 9589854.051 
301 1 38.064909725672400498 37.923353049024356665 1.6499990200254686101 -7.080981179 7597251.856 
302 1 32.470724431214975425 40.766247471384311041 1.631935818990909226  -6.377373 12228529.66 
303 1 35.728614979081925185 40.114630001216667665 1.6267575482284419852 -6.994462593 8369059.127 
304 1 41.306366823185747705 38.115477345412649868 1.6202377957279352483 -7.032022449 8311154.705 
305 1 47.26564499239436401 38.998270774511780701 1.6222762123241263321 -6.99170094 8355299.879 