ITEM: TIMESTEP
28
ITEM: NUMBER OF ATOMS
3456
ITEM: BOX BOUNDS pp pp pp
0.0000000000000000e+00 9.7053671967805357e+01
0.0000000000000000e+00 8.1705996432429529e+01
-1.1763580788950838e+02 1.1763580788950838e+02
ITEM: ATOMS id type xu yu zu c_peratom c_stratom[1] 
1 1 5.4880319841050537732 2.454795486235435753 1.6209426065987360133 -7.166031752 5516221.941 
2 1 5.109378470849827103 80.979544809230716851 1.6244100207142717629 -7.188224251 4650279.068 
3 1 97.288179312154539957 1.9250209557219977174 1.6229657311822500709 -7.243455892 4115462.582 
4 1 96.860785465837224706 80.52625436592924757 1.6205303815121778754 -7.228915109 5803728.636 
5 1 2.7085934776685234304 3.9578178954791276567 1.6232826495883048157 -7.186350019 4665733.67 
6 1 2.5484344365081335049 79.037791092710335761 1.6204151915289233266 -7.208655865 4699335.371 
7 1 11.033225089503881478 2.332656408896632616 1.6224521225231598454 -7.260861227 5229976.196 
8 1 10.671426575468588638 80.918986630724987208 1.6220271846594076504 -7.316226488 3947570.482 
9 1 8.330410990625001233 3.9913134855057328387 1.6246636673315497656 -7.161976603 5571661.794 
10 1 7.8827563290885587222 79.544033216576139012 1.6219839734936216669 -7.348698578 4168989.475 
11 1 16.478101580056613074 1.7204872058851887751 1.6244792024304854916 -7.320442998 4339659.74 
12 1 15.971059264115782028 80.360996165218907095 1.6188703034635676392 -7.370091172 3123638.464 
13 1 13.949801970653863847 3.5494554778190283706 1.6209899422348652553 -7.292603958 4911330.622 
14 1 13.177681830107717431 79.06082087649591017 1.6226396887205045694 -7.327441583 3590371.601 
15 1 21.685081294319104472 1.2965413680152377829 1.6215026702383128487 -7.361486794 4579274.306 
16 1 20.987425467902372844 80.036649612544593424 1.6266344121194000749 -7.417458674 2230988.026 
17 1 19.248500180324356279 3.1827711201721418099 1.6213890583416674662 -7.343092494 4215046.66 
18 1 18.367839012275279487 78.430914187113103253 1.6239148019138611723 -7.366980037 2657018.639 
19 1 24.730712809002554309 1.9761844916979074416 1.6243388859629608323 -7.321709912 4666244.027 
20 1 26.994116261765011444 -0.17863966965317956692 1.6306243428818565366 -7.34245498 3797306.643 
21 1 23.271622713747216693 78.125950969503946908 1.5995866685236219684 -7.48766804 1862552.525 
22 1 26.226087306016456324 78.600300195472996734 1.6269199695944487338 -7.428620155 2136448.291 
23 1 30.633253996963777155 3.3081260950127928666 1.5437727055212804306 -7.260226388 3687226.229 
24 1 29.998045502409247831 0.25009189738079518062 1.5439474378272053379 -7.303684989 4882984.957 
25 1 25.391716595023520853 5.0098092043792243899 1.6206004131403799473 -7.276464185 5340202.919 
26 1 28.489915865068365264 5.6442486580392667861 1.6302423253911375589 -7.230401779 5067539.285 
27 1 33.651311190426582698 2.7078897587399177738 1.6361094890673115732 -7.229207051 3816806.361 
28 1 35.42087787065024429 0.14864253029349222546 1.6218064205554656443 -7.183505992 6730849.955 
29 1 32.713525352510131938 80.385541984012562011 1.6198523443949595091 -7.278654682 4952062.239 
30 1 34.832291970103909762 5.3922524640622100378 1.6039731679734074987 -7.466550681 924679.6025 
31 1 37.727847518596234977 6.0471452011229009926 1.6082505422951780538 -7.422265618 1967212.798 
32 1 40.394407261777686813 4.6227135565367349912 1.6251328573618304407 -7.291139652 1859434.342 
33 1 40.860615078075170459 1.5032735381541064701 1.6224301604875586147 -7.26491224 4377337.173 
34 1 38.539399939840961906 81.06670613315769458 1.6238977218175953965 -7.153789061 6087775.155 
35 1 48.954164461924655427 0.84403848938784287181 1.6239791389258739773 -7.036724825 4994115.993 
36 1 49.989139894935796349 79.431529248943121502 1.6310204386914148866 -7.013317912 6097222.467 
37 1 46.095892767161622317 2.4675062116400416912 1.6260237341408048106 -6.987833202 4826267.816 
38 1 43.771376823067413397 0.32143636373986367305 1.6195376081914651945 -7.258133871 4228396.335 
39 1 47.394574986765398705 77.735731430794999142 1.5972642251947597458 -7.352733217 4529684.073 
40 1 44.52920458161277395 78.946281722312505735 1.6240255687085136671 -7.264105823 3980336.533 
41 1 54.378228128511928219 1.5874441205684781675 1.5993008380825921577 -7.437997595 2122186.467 
42 1 55.251996745918013687 80.305864588984320562 1.5305104207333044553 -5.279622084 1025043.724 
43 1 51.465059644972555475 2.6074552967927466796 1.613251312194544429 -7.408169054 3140864.854 
44 1 52.985264757461827401 78.054313830226874416 1.5612394801881768203 -6.904797367 6720114.726 
45 1 68.820777225556938106 2.7400749884683515134 1.614094321366930318 -7.599258735 6045008.728 
46 1 68.884653695842217758 81.438881834229576384 1.6184175054080904843 -7.423582848 2182440.373 
47 1 65.841509936141065396 3.910633856303449285 1.5760246128727231074 -5.050994317 1804473.684 
48 1 66.279684694147860569 79.831369999792144654 1.6274333916855139304 -7.441668342 1436868.212 
49 1 74.73231856254774641 2.9160010975747554518 1.6251634627744435679 -7.299200138 4793983.63 
50 1 76.141717738629481005 0.1203950560233458672 1.6228105934170413693 -7.334362847 3993333.143 
51 1 71.767743651795854021 3.8791731919836327513 1.6117601955302285344 -7.275112684 5602073.327 
52 1 71.222222822286653354 79.571256545315350195 1.6175622134519174189 -7.45462124 2680797.88 
53 1 74.241098225743982653 79.421956509087280551 1.6222744392004768699 -7.41488043 2429760.937 
54 1 81.055907978400981051 2.009614489436018836 1.6231703590520052405 -7.238242126 4537123.577 
55 1 79.19450586484624921 81.154810444674055248 1.6213284758366834915 -7.225622669 3855622.694 
56 1 76.627728070236273084 5.4004443846119869477 1.6255607067234392193 -7.287443427 4850738.818 
57 1 79.760284882755286162 4.9245565474175236886 1.6234635850860246187 -7.225180516 4984560.471 
58 1  84.1443040890800944 1.4654958658836365615 1.620816018767435196 -7.335131554 4602461.35 
59 1 85.184480718952642064 80.261794237523432116 1.6205487779726599484 -7.311362869 4887273.737 
60 1 80.081391665475948116 78.069571267368530698 1.6262528822653317118 -7.140533897 5291615.803 
61 1 83.252552901306799527 77.798821041978499125 1.621318818325941713 -7.278838902 5530413.353 
62 1 91.623321299295014342 1.8234032203145063011 1.6214243241305039689 -7.358567305 4026712.296 
63 1 91.125119216664728583 80.490424237122383033 1.6239103441068369893 -7.253046035 6036123.568 
64 1 86.236840783690837497 3.7504663252893575276 1.6236015225287157016 -7.344033134 4677213.474 
65 1 89.352947002025643997 3.8966997033222230407 1.6219970305554376466 -7.352818277 4976018.44 
66 1 88.165621798988183855 79.326075266861579394 1.6208362300109329102 -7.261298676 6249342.26 
67 1 94.456024648032084201 3.1032564789427308227 1.6175508482133911237 -7.368613669 4251635.765 
68 1 93.975372732619007365 79.143439793912051528 1.6220673358087207561 -7.218974877 5988952.102 
69 1 9.0275557771329424384 7.1102257743049586125 1.6209163602942151527 -7.233603114 3910842.962 
70 1 2.3457639938198826535 7.1409570568932760892 1.6224282352765246884 -7.205281905 3648352.522 
71 1 4.1950321987316296912 9.7462763008817798749 1.6228888910544461144 -7.209939073 5048834.282 
72 1 7.3581094488926703789 9.7836060447418642383 1.6230903985827906943 -7.240416609 4986044.822 
73 1 14.586457070142358816 6.6134112021960280714 1.6225556760596127059 -7.299644033 4598048.743 
74 1 11.945860642481006764 8.2505894875549241618 1.6203406251503951196 -7.322430727 4458576.276 
75 1 19.87457594715396425 6.2085964588533411046 1.6208544284544212921 -7.310225965 5165270.817 
76 1 17.378764694592195639 8.0863887158504503816 1.6216762284428245522 -7.280543404  4685649.9 
77 1 22.924619427974874952 6.9878482995263651034 1.623211410270062327 -7.276210708 5321301.372 
78 1 28.73666108970553168 8.7588655738276770535 1.6188900252235205457 -7.330000663 3892548.888 
79 1 23.315595043072040227 10.083731090039005807 1.6225055983158223061 -7.264800768 5670679.805 
80 1 26.384655618061707116 10.755069623619590402 1.6199163154643239082 -7.304144893 5411310.14 
81 1 33.859199670984381214 8.1972310724170220908 1.6079886058968795304 -7.445170218 2337782.381 
82 1 31.523707202798991744 10.103369879237719786 1.6288524703565832041 -7.352342404 3647525.48 
83 1 36.776049816558213479 8.8861410642240681312 1.6073669137484762892 -7.442740721 1871304.019 
84 1 45.275583252501121478 5.6894243899996439495 1.6229442590901523857 -7.018369477 3709004.302 
85 1 42.351492852609531781 7.074783836856734176 1.6238179176159655004 -6.996193377 4001632.004 
86 1 51.767810676730746877 5.6262432368221899637 1.6141405736482201672 -7.413121151 2813469.358 
87 1 46.982783039284299775 8.302467788052648956 1.6198101324104050569 -7.313957415 3354968.526 
88 1 50.049794869409780063 8.1392459820685765237 1.626153259547543195 -7.398474476 4062100.215 
89 1 68.382556545856459707 5.2640032385326387399 1.5558475011270334054 -5.849235307 -1409094.339 
90 1 54.81047396240889924 6.0610640139573712659 1.5564560431027121279 -7.500204899 2148201.332 
91 1 70.853431769425611719 6.7590466876486399173 1.6051053418452596588 -7.401954446 352361.7906 
92 1 72.383818577829899255 9.2792929486229347447 1.6438225839094673386 -7.312064166 2314469.115 
93 1 75.292365723601150762 8.2132883748129525969 1.6097658193466237719 -7.34230243 2453785.57 
94 1 84.87424308491817726 6.508181850893202558 1.6231956679716077474 -7.389489377 3530010.374 
95 1 81.871847592265382332 7.2826256196939276322 1.6241987128358250647 -7.275511417 3689880.421 
96 1 91.115440471080177076 6.4062945967229936173 1.6212223947784221156 -7.405188438 2989808.97 
97 1 86.748245608115851724 8.8976431789897603153 1.6168720722658449507 -7.442288781 2324491.947 
98 1 89.779252632789123822 9.1011360329484514153 1.6277079857535083907 -7.42009045 2273587.174 
99 1 94.149695595260681102 6.1343848928925748254 1.6184774790260685329 -7.388947516 3156715.909 
100 1 96.463255783602235738 8.182726151635359102 1.6230776431881734911 -7.353675376 3786009.078 
101 1 96.512886199501110696 11.275292537900963197 1.6217558934386284708 -7.38096129 3195611.92 
102 1 2.3556738635066336585 12.323953818536336868 1.6199553905834667145 -7.25202712 2936034.575 
103 1 12.161014834629988002 11.358651294377116514 1.6206642436935940754 -7.271109378 5630115.241 
104 1 9.1993800025280911825 12.375418029146940668 1.6191103397811077436 -7.239175873 4433655.783 
105 1 17.694376129082659332 11.22022201533209973 1.6236389606139622899 -7.169332364 6626486.817 
106 1 14.947965295192776836 12.890227525810505682 1.6221788639099876672 -7.18256197 5946480.487 
107 1 20.811210614124863838 12.027533306760926024 1.6234079654226860612 -7.204695728 6438465.56 
108 1 27.490483473941729642 13.661930481212456456 1.6237346864811295077 -7.290812946 5025842.482 
109 1 21.970316804107756781 14.943651347210687774 1.6209508475092846425 -7.296432905 4683349.415 
110 1 25.050149845196877152 15.570621353727339908 1.6192520283747717791 -7.323865946 4972935.744 
111 1 32.759194567014255028 12.963531021521442099 1.6213989921964067076 -7.246708845 6206793.435 
112 1 30.366154897725351702 14.992175693232953293 1.6213000203712675251 -7.259274583 5123131.195 
113 1 38.22174409594166633 11.476792495569045016 1.6259294374457602395 -7.025454127 5103002.071 
114 1 35.869489743409125992 13.658512794094493259 1.623811824839998863 -7.16867661 6580760.057 
115 1 41.208946534494053537 10.205727095777897162 1.6245973731608327473 -6.980463624 4091060.005 
116 1 43.207879728012692055 12.631441451102823237 1.6195070074146624695 -7.192958557 3368350.616 
117 1 46.015322824747087793 11.252596685444951063 1.6236645476033888524 -7.307904798 3527433.341 
118 1 55.241954401176442957 9.1162369273536807412 1.5631928026441195279 -5.328386096 1726913.888 
119 1 52.360357001572957358 10.116698090449281366 1.6079245210269268451 -7.42779727 3063875.867 
120 1 71.519720784669232216 12.228551271208484508 1.6085378103991612164 -7.364893823 1714029.113 
121 1  69.5527786827120309 14.554999638212686719 1.6090329252786910175 -7.415555517 1239999.479 
122 1 76.355744884666108874 11.012473381966739083 1.6061328592591792574 -7.470131489 909274.2549 
123 1 74.324660297646119034 13.208103422154788831 1.6145092822273472422 -7.469996572 1231943.044 
124 1 81.568583722833295724 10.420721263377284771 1.6262289455589269416 -7.299615562 1308603.601 
125 1 79.07639000534921081 12.16787590230531535 1.6215874481544028107 -7.419045172 1068053.929 
126 1 86.260877345796842519 11.835393260345350441 1.6112085829964462036 -7.483476716 1315478.107 
127 1 83.472360870564045854 12.842809986832220304 1.6236422884125953914 -7.357504701 1032469.835 
128 1 91.191551671805640922 11.783994684360685312 1.6138984065387127487 -7.445215383 2644661.363 
129 1 88.73255033726570673 13.477015552152115774 1.616275620639900934 -7.479062868 1498359.825 
130 1 93.96143241357651732 12.986440614415720063 1.6248182018320902475 -7.389112759 2879540.551 
131 1 8.6006645279815732152 15.489658591880607119 1.6254276379248340234 -7.080801475 7238871.743 
132 1 2.6741851671302083737 15.496327270597252124 1.6260443826526116418 -7.097428232 6499049.119 
133 1 5.6078463607584563277 16.806572544189055662 1.6200892550864702812 -7.116475794  7110199.3 
134 1 14.525811929044754933 16.049897803074490099 1.6235478435944661335 -7.097961346 6890545.931 
135 1 11.438545096757026798 17.084188717393551826 1.6217475670963732437 -7.099552457 7265829.081 
136 1 20.280644625437766138 17.569711258859921799 1.6225039729031425217 -7.216529324 6613851.191 
137 1 17.106213750992484535 18.019539533900641004 1.6223834429961494497 -7.146623596 6680719.523 
138 1 25.551788914942349606 18.61888748518157044 1.6197246868902313022 -7.284098452 5393150.601 
139 1 22.624518315211517461  19.6853025413688556 1.6199884566852833512 -7.286962689 4888382.026 
140 1 30.870958703737894524 18.098767648812771114 1.6219113600120413921 -7.210473596 5825978.409 
141 1 28.367682078565543691 20.08385671794513172 1.6220064143590562367 -7.189754179 5397047.522 
142 1 36.366528680198882739 16.75785056226856895 1.6215243331395201576 -7.182228461 5779976.501 
143 1 33.961718252761976089 18.914273641781459645 1.6230062539830090174 -7.160224318 5925351.06 
144 1 42.286256486321903481 15.728467642896905687 1.632756847555970392 -7.143011088 5896966.077 
145 1 39.49859786901694747 17.325305857947846278 1.6217900635978876878 -7.195418841 6280401.579 
146 1 48.404354138014220155 13.142571512634832587 1.6122427193145616453 -7.424239334 2960447.245 
147 1 44.904996766838188194 17.434817530957047893 1.5737662363044788716 -7.30535013 4307596.344 
148 1 47.666106259451389349 16.099428716340021595 1.567920690786424931 -7.500612424 1586648.84 
149 1 51.461452809512707063 13.025845752097973573 1.6055713493201544395 -7.465384882 1943138.197 
150 1  70.9424220012309803 17.352196730560383031 1.6162098225511709604 -7.355837855 3790604.992 
151 1 65.866652781671675143 18.863995380486191067 1.5895588669781104407 -5.284572663 3064101.766 
152 1 68.88052889483743968 19.641408361732352716 1.6166000506070044018 -7.369530159 3422833.018 
153 1 75.767206353885342196 15.834386549242900344 1.6239907008154879087 -7.41922754 2427092.759 
154 1 73.902196493275752687 18.258428048938807109 1.6231458565496477142 -7.374371679 3384660.043 
155 1 78.744945696969367077 15.191527286383250228 1.6230010718995024899 -7.420485735 2035822.034 
156 1 83.370491686904315998 15.87797671583715875 1.6220256233465930595 -7.395818503 2592063.276 
157 1 80.769709744283005648 17.409448127350476199 1.6215173408867322724 -7.432871593 1611398.873 
158 1 88.661593399785488145 16.456719886386942164 1.6236637669447639976 -7.41962894 3471662.194 
159 1 85.857383090791813629 17.605201263572105574 1.6223412012760078937 -7.414640258 3271890.86 
160 1 94.052812044991938478 16.076273943148340351 1.6222753343693701034 -7.287267732 4983132.545 
161 1 91.407403268373556671 17.790627237158251006 1.6240769791447406956 -7.289138339 4575062.346 
162 1 96.958441895570956603 17.232782704169498089 1.6210852807920457241 -7.118898741 6119245.839 
163 1 5.2747260824366000165  19.9457151309369074 1.6231444145024296333 -7.173451236 6275718.087 
164 1 96.519572127821533059 20.389625728158822682 1.6231989004903679685 -7.048036097 6162270.473 
165 1 2.433430547750284223 21.490466984250698346 1.6222066701609700878 -7.180139529 6108012.759 
166 1 11.085948816123597283 20.229179935180376049 1.6220148193231753719 -7.191065384 6083178.029 
167 1 8.1037920763974362615 21.386537691731966504 1.6218059175651828863 -7.23262441 6195311.602 
168 1 16.710603075714594468 21.14202959216840938 1.6221932292362870598 -7.177403303 6430692.211 
169 1 13.662495322946424992 22.137349516923077175 1.6233902077511608297 -7.19446207 6217131.057 
170 1 22.419073834434936288 22.778670100302509383 1.6224541880378593461 -7.018475138 7925836.799 
171 1 19.20387500452840257 23.154310259464285338 1.6216076584556469165 -7.136677911 7003899.951 
172 1 28.519842291593164418 23.292291969777981109 1.6277791344540111229 -6.662210102 9779081.464 
173 1 25.271244407669549048 24.467739695464995719 1.6285272852631624829 -6.813060769 9052102.287 
174 1 34.384592980127791861 22.073766700433193222 1.6219488688692993428 -7.071446733 7161428.046 
175 1 31.849126915844049535 24.171445905664537435 1.6292518484425795311 -6.828695215 8784641.668 
176 1 39.797564612096984149 20.421352224361019267 1.626109386429100967 -7.315223915 4386100.102 
177 1 37.562235412950222724 22.604408369084961095 1.6242273971421663514 -7.188335536 7258436.12 
178 1 45.528020448469632697 20.472619908514364084 1.6453889267631136573 -7.171982636 4007486.211 
179 1 42.683301835957081494 21.437993554324894063 1.5054190849012070164 -7.39189189 4074246.896 
180 1 58.777218630933390386 23.553613717755656154 1.5356653985046178068 -5.718953233 1773115.834 
181 1 47.985738144748367517 22.52053927863417826 1.5700355986336038683 -7.209181139 2648416.93 
182 1 55.857116328330278066 24.026970363415919962 1.5701022284537267115 -5.294282825 1496785.198 
183 1 64.335390634120756204 21.501954948526215361 1.6175807965788842058 -7.370648493 3983320.799 
184 1 61.613771505378345239 22.884085463810279748 1.5774163760672432755 -7.05931526 2625384.468 
185 1 69.496086922145423159 22.666439787837923348 1.6240706916768909984 -7.306984204 5749673.787 
186 1 66.537009627752254914 23.617484177616844931 1.6215329516281746791 -7.350297577 4655634.869 
187 1 74.626772953933567578 21.264669766528321304 1.6239853130001602466 -7.350542501 4001409.055 
188 1 72.50505465752200962  23.5228426996309814 1.6212714593072425906 -7.31586148 4868434.826 
189 1 80.147275441599461487 20.387658581396561175 1.6224851299116558323 -7.392180317 3281583.415 
190 1 77.613439517659557509 22.153801582839701467 1.6222001433415342841 -7.349418091 4415720.022 
191 1 85.406998318727985975 20.605192059667423621 1.6190208923538287333 -7.384909176 3775862.113 
192 1 82.698754039761595891 22.084128183269278622 1.6243504072345313904 -7.382218072 3715909.05 
193 1 90.901395488573129455 20.86013582218150475 1.620614448868455737 -7.20786291 5524936.71 
194 1 88.013200099683515987 22.243337851741575406 1.6241742986268778992 -7.200611439 5750506.302 
195 1 93.738271907272775252 22.178318703351401098 1.6245987572360232054 -7.022216068 6289421.47 
196 1 7.7387790791397703671 24.461097784723495607 1.6213030799421754846 -7.369996132 3505000.49 
197 1 2.2311848338528421642 24.578919145288718795 1.6197050051543206983 -7.327212236 3309599.945 
198 1 4.9918647238717932524 25.892438518310832762 1.6231148617950759139 -7.385575231 3527365.663 
199 1 13.094697345433077729 25.226887278397992276 1.6208347808886749419 -7.321145825 3970577.84 
200 1 10.180474429582821116 26.337455667702311501 1.6234312191556989902 -7.359853137 3845896.331 
201 1 18.352946606167712673 26.117859176650032538 1.617574660408362508 -7.370653215 4041709.81 
202 1 15.460617495451881354 27.260129223958113442 1.6244242294897648371 -7.329987278 3973178.908 
203 1 23.937718668282911949 27.375002979216983334 1.6164355895008961639 -7.225605813 4090837.269 
204 1 20.872584940792130226 27.875037381850084728 1.6227494613246582489 -7.354562508 4492302.865 
205 1 33.36632998569222508 27.045967928552013149 1.6142675205914178704 -7.129173847 4626686.194 
206 1 24.838050324258848178 30.402129622509011853 1.5950797826618334785 -5.17224731 1234831.98 
207 1 32.310507449168035521 30.017730810126810326 1.5829669312880425558 -7.401296114 1891063.361 
208 1 39.676594933718149605 24.934536526281501523 1.6284763909451580588 -7.289099659 4137248.257 
209 1 36.15742392905401914 28.422500196826771202 1.6222070444184009119 -7.275194748 5026212.554 
210 1 39.229914685388195039 27.980629323450354917 1.6242495121102988875 -7.262376169 4774285.295 
211 1 42.692984817497631411 24.578587382255332017 1.5218815582809268605 -7.338126801 4392927.447 
212 1 45.33324632552568545 26.107168787073860017 1.5257085219861690195 -7.302197372 4860324.248 
213 1 48.37851671952694943 25.69726864543921252 1.6344072903715858303 -6.99062047 4819270.636 
214 1 60.374446314822165505 25.752491199479155881 1.6331158274557422416 -7.54690766 6319228.054 
215 1 57.359845252109636249 26.750418792416400748 1.597548261175814055 -7.254800092 4546161.513 
216 1 65.562475895753479449 26.529769739774579307 1.6234771687545443974 -7.323851833 4582090.682 
217 1 62.691072874781220037  27.8055130266080468 1.6221912605412882602 -7.299005562 4492488.777 
218 1 73.557904732597762631 26.449527521933802632 1.6229121491533256005 -7.271543884 5450014.375 
219 1 68.011197846818049584 28.368321654710744184 1.6196764677820998379 -7.350571455 4871382.377 
220 1 71.117617345844593046 28.370595053874229308 1.6229359207730780223 -7.339645349 5027211.08 
221 1 78.653447149278818529 25.079300845696668176 1.6228383151977550103 -7.322694247 4619200.353 
222 1 76.586314410591668889 27.432045264981798738 1.6233514177513816978 -7.236026437 5239282.271 
223 1  81.7687770445545965 25.004120137300706261 1.6177557387192382787 -7.354507268 4797672.21 
224 1 86.95117805804488853 25.22346579132065969 1.6218556921587532482 -7.199305191 4792471.765 
225 1 84.213688124980180305 26.88637706927761073 1.6224709279080713475 -7.214507093 4533222.897 
226 1 92.450705158532059613 25.09524552478384507 1.6197218135672573069 -7.16862645 4290281.246 
227 1 89.692227639365043501 26.605481874501222705 1.6184445336157513573 -7.260786431 3858647.35 
228 1 0.16880400787405946961 26.899954134771117964 1.6232299128737972538 -7.320691882 3584174.865 
229 1 94.197496470886235898 27.582998624181854552 1.6225228548570940212 -7.320972372 3327735.593 
230 1 4.6077119209567447555 28.914693931118190307 1.6181467863252461115 -7.428295783    2431888 
231 1 1.6389349014849878827 29.558615713506572575 1.6176081155060757499 -7.400581423 2609515.94 
232 1 9.6775472711619148214 29.37929692434279616 1.6210259658327150767 -7.389654706 2524838.133 
233 1 6.9470142137612613809 30.796300507223623555 1.6238602638069408179 -7.386791305 2673721.286 
234 1 14.89415673731245171 30.331109044148899301 1.6237676638563993681 -7.358818428 3244124.829 
235 1 11.988706408077257848 31.340926871673538301 1.6173066862528617804 -7.395719677 3090241.347 
236 1 20.146438034231518799 30.873546376073853992 1.6195745699800223605 -7.388334379 2915499.003 
237 1 17.357854263221632607 32.184423037570482506 1.622541893183393924 -7.360795036 3058017.293 
238 1 22.632934900540391254 32.635879663091003522 1.6233103636616492693 -7.297712478 2454282.727 
239 1 35.136430404502895897 31.278901823072938981 1.598277379639815976 -7.329383919 2996603.653 
240 1 44.746057863244985242 29.24447563596150701 1.5186676917871082537 -7.328314092 5089996.107 
241 1 41.756194253406675898 29.899895750654458482 1.6319214043257357361 -7.269678029 4931119.771 
242 1 50.124902771438378579 28.500231704345207362 1.6279448220509646905 -6.821330125 6739044.962 
243 1 47.608134344135827121 30.376088317035009112 1.6261616521409598679 -7.329901724 4600916.541 
244 1 56.119287118389635793 29.644587046173835887 1.6243317994212060906 -7.129686405  7114338.6 
245 1 52.934216141275136636 30.413683469185674113 1.6270901312696623986 -6.869056823 7229098.787 
246 1 61.63360190869910582 30.706661507057980032 1.6208732183465277554 -7.296426944 5608800.392 
247 1 58.61144185204064172 31.635381905124020818 1.6224878398360798037 -7.228226935 5841628.586 
248 1 66.996265978129414975 31.252979627342966751 1.623952277801718358 -7.355505363 4472035.765 
249 1 64.144355350221758272 32.501771144979940686 1.6201358455631194033 -7.352266089 4461038.305 
250 1 72.129498013963157632 31.252574726570241381 1.6206741561415618502 -7.356040783 4884552.274 
251 1 69.552856540045283396 32.934478257035152637 1.6184486577944370289 -7.387639802 3801695.157 
252 1 77.679263203414578243 30.418058744041875485 1.6236408751989741539 -7.128475226 7157534.48 
253 1 75.07337837736203312 32.241233820393475185 1.6210759145824018557 -7.261642632 5517312.513 
254 1 83.792908401419254005 30.040668494314655135 1.6243402914950888505 -7.022693439 7593525.625 
255 1 80.772826706228201488 31.441732594296574632 1.6242026581472932545 -6.993630266 7989094.902 
256 1 89.544251743753235928 29.731933951959135243 1.6225713016299592173 -7.134646307 6821471.151 
257 1 86.72923544072266111 31.396148760128419042 1.622030057300707373 -7.084081233 6911222.506 
258 1 92.632687240839075571 30.291106298968440314 1.6186904385876170753 -7.294362246 5237975.663 
259 1 5.8477363266018977939 33.668798370105001538 1.6224824946123870273 -7.316689093 5264249.789 
260 1 0.35523923215141695042 32.357673529212760855 1.6252553774523945673 -7.304032803 5452045.177 
261 1 2.7687183342079570991 34.33451962323353257 1.6206962402298576986 -7.297689726 5312450.62 
262 1 11.127008112921984662 34.299163297126412431 1.6264184192253805517 -7.319973662 4779749.946 
263 1 8.2602808962600544618 35.592058462746287262 1.6188268166817041394 -7.322028586 4630789.577 
264 1 16.724817776011079218 35.230403426273319667 1.6224652032165614024 -7.320896945 4476615.199 
265 1 13.712173371969907265 36.001464555048833915 1.6190578250499902957 -7.357678151 4516834.606 
266 1 21.869193840941953511 35.626021765170939659 1.5823163832759665759 -7.313486186 2645596.269 
267 1 19.173830459088726741 37.160283023320396012 1.6252196327552153043 -7.229661602 3883885.387 
268 1 36.604288082157573569 34.042515718449791962 1.6240362664625516143 -7.32441826 3712215.754 
269 1 22.584732224358113228 38.507643474045451626 1.5067599407212011187 -5.376933495 367316.7084 
270 1 42.000043729630533562 32.975896085541180014 1.6182833756607939435 -7.355658213 3574304.786 
271 1 39.630711336373565246 34.904659127504629623 1.6219733284494877168 -7.307380863 4692684.01 
272 1 47.613903454018085881 33.448488594242199667 1.6187493777945822782 -7.373967503 3720724.913 
273 1 44.715540653143953875 34.501397435410510184 1.6228983698015480019 -7.346685525 4222097.678 
274 1 52.842057426299035683 33.702056397328085779 1.6225408495046849122 -7.081410438 4866456.284 
275 1 50.09453116658064431 35.319241635765727949 1.6222677877098952148 -7.245890441 4310823.057 
276 1 58.348797477139861201 34.769888963770135604 1.6215053665135279459 -7.24540881 5429866.497 
277 1 55.333659981962469487 35.747672344880754736 1.621499793422497282 -7.169499113 5245209.002 
278 1 63.89357125607261878 35.562160570986264929 1.6225043503723100002 -7.310665964 5175997.47 
279 1 60.927652883131202088 36.632887962126964965 1.6224003581447055122 -7.254843406 5332535.819 
280 1 69.391179421858524279 35.952472069435934543 1.6215123537171827195 -7.313378507 5093567.07 
281 1 66.534773344345765622 37.234595921592351431 1.6228186735938929797 -7.314329253 5073719.63 
282 1 75.005058568826243004 35.355617710689365651 1.6220551061061716513 -7.196993418 5829714.173 
283 1 72.291284784133736707 37.08588138827047942 1.6230360146058133708 -7.198729271 5617452.558 
284 1 80.753784488672536668 34.645697068450431289 1.6223102245649141384 -7.06486624 6789940.215 
285 1 77.983170680252172247 36.415729688990715829 1.6218464681178426101 -7.090179631 6419468.65 
286 1 86.72117607207707124 34.588275147515709307 1.6230715972836076144 -6.998843065 7807429.995 
287 1 83.700316435509478197 35.950597766627900853 1.6226019513269398509 -7.046322806 7620809.784 
288 1 94.305779407289094252 32.890510561971886716 1.6201192043729188974 -7.29302941 5024223.469 
289 1 92.897944477713039646 35.703445362295823884 1.6249417112651751705 -6.951400554 8660879.945 
290 1 89.576539885375112249 36.195119694878037819 1.6237243929141833565 -6.94410582 8717141.988 
291 1 1.7641825045909820258 37.288835658489723812 1.6234954791556714948 -7.055317019 7742938.379 
292 1 95.546023160334243585 37.627777563995721266 1.6239768068365363352 -7.031342754 8052212.876 
293 1 7.5432861052267172752 38.607053934084589741 1.624642492960597373 -7.133640647 7460585.026 
294 1 4.3508165545895254311 39.25351017349786531 1.6241162962584152485 -7.098482801 7351503.075 
295 1 13.243026692901185726 39.03499678003522888 1.6295395741950451374 -7.247383738 5961163.794 
296 1 10.29893820027286111 40.214491220645214753 1.6209397489188879238 -7.22510061 6473064.072 
297 1 18.958052588612435585 40.352891386342164992 1.6349735430946852333 -7.126237103 5201010.635 
298 1 15.855493720497239707 40.738728634621374169 1.5648688852386398729 -7.306675832 6246250.642 
299 1 24.097665117912423938 41.074164269679442896 1.5582001565422805012 -5.320527318 2029427.283 
300 1 21.345668373521277772 42.555740580483558233 1.6212100275230929558 -7.050616377 4747388.993 
301 1 41.090600315434159029 37.663132174178031164 1.6280419849919312014 -7.318191969 4500831.219 
302 1 36.533709186465117114 40.954816222502145706 1.5820731711413948961 -7.473165212 1733579.975 
303 1 39.497349225253934435 40.230873170132916528 1.5898554390227463973 -7.454801261 2401272.412 
304 1 44.224594532553823001 37.562781971677651427 1.6203916978761292444 -7.264712137 5000965.606 
305 1 49.587153458689925856 38.46135719229847183 1.6222153364838196588 -7.197341619 5580710.434 
306 1 46.610517018924461752 39.675615546864172245 1.6241382001698310145 -7.161399207 5570904.467 