ITEM: TIMESTEP
1183
ITEM: NUMBER OF ATOMS
3456
ITEM: BOX BOUNDS pp pp pp
0.0000000000000000e+00 9.6883402367861862e+01
0.0000000000000000e+00 8.1705996432429529e+01
-1.1763580788950838e+02 1.1763580788950838e+02
ITEM: ATOMS id type xu yu zu c_peratom c_stratom[1] 
1 1 5.2997877059390265941 2.9010247142252483243 1.6233236195990246031 -6.907650496 7917752.583 
2 1  4.98032041979667639 81.370376669289939287 1.6232678409728962254 -7.008330211 6581661.345 
3 1 96.483520838825882038 2.3024456483508268789 1.6224081828968062169 -7.050396376 6578069.372 
4 1 96.178703483376850158 80.826390864627654764 1.6212871118738230169 -7.013710159 7677294.362 
5 1 2.3047081596478444787 4.2234279789529116655 1.6241145201857269953 -6.982846404 7035243.039 
6 1 2.2337108301077410744 79.489597059616500019 1.6221852358007069483 -6.998529557 6780885.295 
7 1 11.213452974276592045 2.8077099485090108999 1.622892188838179317 -7.059027437 7602916.287 
8 1 10.817944053488171008 81.368811636365549589 1.6212549850355657544 -7.19673106 6074552.786 
9 1 8.3424264646730126316 4.3746118939174749585 1.6252290486770533118 -6.916667077 7846326.688 
10 1 7.8987279432663486389 80.048317536163949626 1.6217110077266352341 -7.20622814 6337861.77 
11 1 17.07864132102403687 2.2777716063484292341 1.6245617478159324332 -7.125666894 7177719.627 
12 1 16.445559942543436449 80.913031613954814247 1.6185448407551670247 -7.273740582 5337231.589 
13 1 14.305086532795638021 3.8974876737593979747 1.6212953222660428931 -7.097589841 7412817.626 
14 1 13.523050812902280171 79.677044626561794871 1.6232583845700014891 -7.223739886 5749637.804 
15 1 22.830012557786972138 1.8148719362355876239 1.6217214454738011487 -7.064644684 8047898.312 
16 1 21.864113819754546597 80.581453576865641253 1.6204751013908367252 -7.299997566 4642448.869 
17 1 20.111227372664714608 3.4598688219220821161 1.6190923300338715407 -7.124056887 7273042.58 
18 1 19.041279513888579089 79.165097871237890104 1.6244531268032174065 -7.280072331 4918974.943 
19 1 26.081236022291509613 2.2894614895525577936 1.6211525455468800416 -7.022823118 8154176.854 
20 1 28.777775432889118434 0.46469695465730587181 1.6258001417237295527 -7.022180318 8251738.139 
21 1 24.416654702157817525 78.949356908930013788 1.6114687442064994372 -7.367629393 4466687.54 
22 1 27.489997442846295428 79.354927175746553303 1.6223811017114579958 -7.350953981 4344500.032 
23 1 32.895725089384995954 3.8318349571046628199 1.5408301939139923409 -6.964728986 8297277.93 
24 1 32.043059577837624374 0.72316977666559667526  1.54223003670409331 -6.97270226 8891583.878 
25 1 26.905516068999439483 5.3242782039461902244 1.6216622507922469065 -6.92991784 8685242.443 
26 1 30.22005038490928186 5.7066397301740305892 1.6229892425026830605 -6.949669642 8452296.615 
27 1 36.143847894674102861 3.4296604016758833744 1.6245830266829079935 -7.03109947 7545349.104 
28 1 37.960932910833463438 0.7498488226047596017 1.6248737201976699573 -6.540588649 11122967.55 
29 1 35.008165597674867797 81.074639332537046243 1.6167576025565355557 -7.006997568 8198937.116 
30 1 38.173420363201657324 5.7258764087032023582 1.6134768801424490547 -7.309720653 5164233.953 
31 1 41.203557035429199118 6.3589054370117858994 1.6193428767134223634 -7.158636125 7345199.852 
32 1 44.256176140657736084 5.2694729317186590478 1.6239284160284295222 -6.932740863 6697302.824 
33 1 44.53239313468780125 1.9672464183469422494 1.6261251496495101598 -6.515383463 9620528.138 
34 1 41.478029291969129133 81.856176184122460882 1.6270944478113245069 -6.422207484 10385720.3 
35 1 53.956939332340660087 1.843466233230762974 1.6305560542022488058 -6.175416043 10205613.78 
36 1 54.194669063733215353 80.03568752942437925 1.6297251193794097812 -6.338082874 8598374.368 
37 1 50.648101396431172816 3.2217127154345130968 1.6310356265280405719 -6.145165714 9449839.338 
38 1 47.858069735799325883 0.94649627843676342742 1.6280031839548527728 -6.361786817 9001208.873 
39 1 51.388581455681752175 77.818968215352384732 1.6309146924764454933 -6.27221662 8665464.215 
40 1 48.172940855680401739 79.219526007986701188 1.626445082506176476 -6.427372897 8990209.124 
41 1 60.026973271761022488 2.1197501260959525915 1.6214939420070273446 -7.014015379 7731653.829 
42 1 60.174973276840745484 80.642732387889566326 1.6220945104279436144 -7.085844792 7210823.696 
43 1 57.09238303700657724 3.6948892906720431917 1.6302871047325540044 -6.389987893 9286144.145 
44 1 57.457457276701489945 78.846365148428660063 1.6248453039228387684 -6.77103019 8729809.329 
45 1 66.063529961672927016 2.2124543683832955665 1.6220830240219379359 -7.131383804 6952420.759 
46 1 66.075712934790004738 80.900415619028251513 1.6175317141992648917 -7.255769749 5523502.264 
47 1 63.06076784524457679 3.2976688761946149064 1.6057404617184782847 -7.099853741 7757919.577 
48 1 63.247959552248374848 79.588244541942984256 1.6209806797463059969 -7.128382179 7281446.552 
49 1 72.190597436024305011 2.8261163554512407359 1.6227485752889010406 -6.909359772 8296050.609 
50 1 73.898738172470714858 0.057951624390325542913 1.6222995519497585004 -7.029290582 7480628.619 
51 1 68.908569821313193415 3.6340629759456128944 1.6242401422268966105 -6.884582381 9012575.232 
52 1 68.744653649920849148 79.24461108179386315 1.6217466811650960157 -7.229765191 6663193.131 
53 1 71.913364062970643431 79.327178908734694573 1.6203770125434153737 -7.244335106 5835375.202 
54 1 79.230060300826593789 1.9749313656403693074 1.6228226109228625074 -6.973969748 7478303.171 
55 1 77.158460072235229177 81.163826905975753334 1.6234204928106841237 -6.956028318 7063402.225 
56 1 74.361725838827140933 5.185588251024900508 1.6215962891781832145 -6.963150002 8551238.828 
57 1 77.709556738131553288 4.8833514885076443335 1.6254223878760472033 -6.912072141 8043547.977 
58 1 82.517860024904663874 1.5247870529889788749 1.6219374761772575866 -7.028032739 7726414.756 
59 1 83.860131667161425639 80.323224162172181195 1.6212287350679344122 -7.070795116 7319171.643 
60 1 78.458743179492998365 78.120601412165456168 1.6260473156460000244 -6.858082278 7823386.574 
61 1 81.811465098595448353 77.836738216749253638 1.6229080923031400374 -6.964123076 8386456.277 
62 1 90.546346113503787478 2.0630899825806121584 1.6192318436719608243 -7.189375464 6419465.51 
63 1 90.151087176540656287 80.667586142877212296 1.6231168216065614551 -7.003709016 8220919.753 
64 1 84.732937140458403746 3.8772736267369452001 1.6226030710333378959 -7.022145949 8039198.422 
65 1 88.048067320168783567 4.0183499023522504245 1.6230421184621308672 -7.03964773 8532664.037 
66 1 87.036376839817179984 79.521699515003888337 1.6231196533656107039 -6.978833304 8686017.128 
67 1 93.485036798463497121 3.3565499020849389744 1.6174773546083835996 -7.185867745 6773229.672 
68 1 93.17114365841756296 79.404152448365593386 1.6226606374406429278 -6.982983062 7955513.435 
69 1 9.1307832687031957875 7.5179191632236994636 1.6209321325740235764 -7.097048891 6036920.754 
70 1 1.8712765780634814661 7.442902490435614915 1.6212146798695359351 -7.065014873 5510051.291 
71 1 3.8813706957095632788 10.036672183832310523 1.625851422978080274 -6.930901899 7979987.132 
72 1 7.2319700057222444656 10.122761915870581717 1.624760169233189222 -6.963103501 8060210.653 
73 1 14.988802749294890759 6.9728409569758635911 1.6224992877416495318 -7.124214958 7229601.676 
74 1 12.195873568150540578 8.523326180305625499 1.6209129236836914423 -7.16672482 6858381.454 
75 1 20.813475696196558573 6.5008014842141772505 1.6217162409284029412 -7.026265143 8216511.247 
76 1 18.030499472871060362 8.1516013125693316255 1.6214454245879363903 -7.077635752 7545305.941 
77 1 24.075023924256839791 7.004877119918459627 1.6201144147134847184 -6.968192443 8454515.958 
78 1 30.894866823478402296 8.7973021027724183085 1.6201245270505515439 -6.963417627 8529843.741 
79 1 24.69180375727743737 10.088205552973260382 1.6210755188550756145 -6.842483519 8956483.924 
80 1 28.035588517331685665 10.402633687124977158 1.6220720295268138411 -6.886431745 8911209.823 
81 1 37.074165321698352216 8.5789310883332650093 1.6185693316170450817 -7.145816372 7567712.863 
82 1 34.080442594036632897 9.7391066723926371651 1.6224065520268873275 -6.997805438 8551382.054 
83 1 40.103861646188448731 9.2658288914381454759 1.6154114396096126427 -7.280505502 5201902.527 
84 1 50.076532580477284284 6.7676633098152061407 1.6315364624771302449 -6.183487953 8555766.296 
85 1 46.68617288963230294 7.5727135586874876338 1.6253233695880007215 -6.646369381 8579891.738 
86 1 58.073441900079487255 6.9944731367787635889 1.6222256356754714002 -6.731895654 7163924.753 
87 1 52.514549581842956627 9.4818148895946450239 1.6289140274376416873 -6.255140088 9665147.925 
88 1 56.084709611387104644 9.6166646629869116936 1.6261048623610432351 -6.523114149 10106201.96 
89 1 63.854515281000637117 6.3349861748175495535 1.606159379222250827 -7.066393753 7811246.827 
90 1 61.240170368810623813 8.2047586698825849538 1.6215514517227656022 -6.893408644 7839820.422 
91 1 67.113217183875022442 6.2558145061273044973 1.6179574908805196554 -7.084251347 7754845.487 
92 1 69.264214777836798476 8.4980999788253690497 1.6196610910176603149 -7.191057735 5999175.807 
93 1 72.375597643249321322 7.6936856156270536644 1.6205275303563217992 -7.145786691 6344769.044 
94 1 83.15845135916173092 6.641652893793201784 1.6224971573441757666 -7.143139135 7017806.121 
95 1 79.955908152725641003 7.278550028398602656 1.6235948777533686371 -7.028835597 6771370.283 
96 1 89.985674913239407147 6.512682840037942178 1.6211675033662933387 -7.242606949 5515570.424 
97 1 85.329123439678340901 8.9031286972991434681 1.6162258999205523224 -7.296847945 4841812.479 
98 1 88.445535650802909799 9.1462310088203295777 1.6221714901344124193 -7.304435126 4463648.271 
99 1 93.142492856665029421 6.4367941652467477454 1.6181042707032544659 -7.204617319 5889109.464 
100 1 95.697131916897120618 8.3673185534344778347 1.6226982838599057768 -7.197304698 6111279.754 
101 1 95.684038591224592096 11.51451570893214793 1.6208963233022741779 -7.198491901 6354412.573 
102 1 1.8264587482868395174 12.565949093944510651 1.6201549705422080283 -7.084476918 5628315.439 
103 1 12.447416957448441011 11.651346969808814791 1.6224372817018559711 -7.046652075 8077288.781 
104 1 9.3563033803832471591 12.60745444868962295 1.6203227561392907763 -7.066006911 6580836.281 
105 1 18.432878296706206811 11.302381891649151413 1.6240297500717189028 -6.79790895 9028079.674 
106 1 15.48514557761139443 12.954893067113530947 1.6235587050781412621 -6.894061609  8225901.8 
107 1 21.806209222702133133 11.777049121395638309 1.6222149955210740657 -6.806431794 9326312.719 
108 1 28.994192996343873148 13.392856532498470301 1.6187032083135499683 -7.080377699 7762536.551 
109 1 23.056159496519601504 14.677931511230161377 1.617172621306893765 -7.175095456 6381782.338 
110 1 26.250377234627908507 15.051118570811759412 1.6226383889854916198 -7.140003976 7376100.355 
111 1 35.001164571215433341 12.771665983891399065 1.619729068238285441 -6.812731782 9225410.527 
112 1 32.115205459668700883 14.385046835930291209 1.6210910026976630416 -6.993107763 8248910.255 
113 1 42.008578454228519661 11.704654158349370618 1.6071254166042234779 -5.58681057 12744216.78 
114 1 38.38213672383928099 13.324840542224384521 1.6142484473823417446 -6.60255025 9655513.458 
115 1 45.436156924147404368 10.728381021714364252 1.6166857724597052393 -6.539428708 9101367.315 
116 1 47.815686965631186922 13.092967208824454417 1.6244126171320734109 -6.590364685 9748946.53 
117 1 51.334229938398138415 12.66129402189494968 1.6267520440067910759 -6.434505751 9619929.848 
118 1 61.811448384072363638 11.446605292044141677 1.6281706919212601825 -6.214448089 11412884.71 
119 1 58.457557973291862652 12.092998106215164356 1.6191429248972799559 -6.735128824 8070086.932 
120 1 68.239950891187092452 11.459303183532528081 1.6187891794300355297 -7.125763395 7447302.576 
121 1 65.295243607044767487 12.873281558326546303 1.6311315648219220087 -6.297964801 11090256.42 
122 1 73.465464074803463745 10.552024296140531945 1.614626798304285682 -7.35506016 4622341.767 
123 1 71.142622750969778167 12.559408561475903454 1.6168652473677855852 -7.327387233 5386640.24 
124 1 79.231716072209067647 10.443299027709128879 1.6248201597902549587 -7.138436423 5388877.485 
125 1 76.31828665041506099 11.801490575876798061 1.6225929335890041383 -7.226408082 5705472.954 
126 1 84.570349951366139862 11.859031562130754267 1.6163585378482843158 -7.355280337 4680821.476 
127 1 81.572014316829992708 12.603502851732047318 1.6202554992489759389 -7.280874774 4321452.216 
128 1 89.90343159400860884 11.899842581805991415 1.6215162788094350521 -7.234586454 6263781.765 
129 1 87.228200616428424041 13.447758522885346011 1.6186714598923415132 -7.353604889 4447891.513 
130 1 92.884012821623826994 13.063061272932896983 1.6230603432605488212 -7.180671081 6391076.792 
131 1 8.7654983586567958298 15.76831574896574395 1.6266397926856104306 -6.720223013 9287767.456 
132 1 2.3364515435175086111 15.780431015052560184 1.626756221122052759 -6.750834137 8836027.907 
133 1 5.5358422880685491663 17.001581728477169975 1.6240298853086787556 -6.696262018 9415335.396 
134 1 15.134481728067845197 16.181418074736278356 1.623799055426432103 -6.788844805 8708339.221 
135 1 11.872652264390639587 17.185902566826722904 1.6244611394877028765 -6.748099082 9236008.431 
136 1 21.274273331006668286 17.304625818377186164 1.6250335013209153967 -7.018937452 8477782.14 
137 1 18.00863637499837111 17.971726011971011161 1.6236258032764605552 -6.865306668 8660852.586 
138 1 26.693092890110051485 18.107529676602975854 1.6195831689512267815 -7.201934572 6693915.123 
139 1 23.757762456002559759 19.321250603341400875 1.6206369475123481028 -7.20645352 6085397.839 
140 1 32.453784053309355784 17.538839423039185306 1.6203949686006935416 -6.957067347 8008770.97 
141 1 29.661903717893846277 19.308077113977439865 1.6198608112861085928 -7.061779032 7045805.635 
142 1 38.77399329579355225 16.45763335857090226 1.6049539270343597952 -6.456822524 9730800.173 
143 1 35.69957323064322452 18.225202785242480275 1.620128486464309292 -6.700087658 9074012.439 
144 1 46.314458115935444482 16.090658628356855786 1.6219073626048963188 -6.265108651 11473007.04 
145 1 42.295419162207814168 16.917756318894749512 1.5859305485820902604 -5.40416023 13123134.78 
146 1 53.87175119763372777 15.121771309568240227 1.6278059744135204845 -6.374609743 10246008.43 
147 1 48.967857950068399475 18.20103579843572561 1.6208004507157922625 -6.774774362 8999190.512 
148 1 52.383112218352742673 18.076516673940727031 1.6250040922169075586 -6.770211722 7999970.028 
149 1 57.504114916122553325 15.231545499035812341 1.6242648865423798821 -6.048651711 11696420.49 
150 1 66.727265646000404331 15.998144804050793866 1.6239892307673984284 -6.554519177 8829290.935 
151 1 60.865960032585896045 17.542649380320337826 1.5965075372943371423 -5.533269473 11071660.95 
152 1 64.346682624209648793 18.185865387973784379 1.6116580776950506504 -6.657849261 8986305.207 
153 1 72.543241802009958974 15.271598488073347966 1.6199558692114242042 -7.141988024 7308478.981 
154 1 70.061458190707071481 17.298528867689419997 1.6261915879514539096 -6.535924961 9242712.291 
155 1 75.746329216773247595 14.909630834891119733 1.6243560189862193965 -7.152964543 7003157.694 
156 1 81.312494917324855237 15.713434221234898303 1.622670647699443025 -7.177360662 6601820.54 
157 1 78.322597145249446271 16.794266873411196173 1.6208248218130578699 -7.226996554 5996873.016 
158 1 87.160595002575021795 16.493143786501235581 1.6225076465192787012 -7.139863208 7267275.622 
159 1 84.07954626960795963 17.377566501090623063 1.6213623457456527444 -7.144066809 6897389.739 
160 1 93.099037777639040314 16.233513938911304564 1.6234141724738384571 -6.984976647 8128525.112 
161 1 90.147789634209814835 17.706640316464699936 1.6213404229045702554 -7.053889362 7626063.241 
162 1 96.209254460434564749 17.384642822129965367 1.6222461451754350836 -6.843832845 8493542.49 
163 1 5.4262677743060345747 20.229055059682625739 1.6243289576052222234 -6.869726017 8579661.229 
164 1 96.068466765752773995 20.622722071551905287 1.6248300164156632697 -6.730939308 9011663.415 
165 1 2.3797981302598438802 21.677847244917394676 1.6243043657606572872 -6.868545967 8692332.406 
166 1 11.607615313924846134 20.393237694850757435 1.6207798835366629131 -6.941634022 7940539.478 
167 1 8.5001754071674042734 21.543351244056392346 1.6246435966801593409 -6.937446346 8473690.95 
168 1 17.590834753002098978 21.163007837099353736 1.619038286295629403 -6.979108066 7675750.281 
169 1 14.440347557339681117 22.170731889859101926 1.6226317776403262894 -6.939138973 7944511.168 
170 1 23.479151440829028274 22.43113670303937468 1.6214416729953664564 -6.993949156 8138342.769 
171 1 20.255002247607208687 23.129275391268741657 1.6244720243147365846 -7.005641636 7730763.774 
172 1 29.484117527728344044 22.498678322831125342 1.6290270218808415859 -6.732326183 9128342.534 
173 1 26.39795507059342583 24.000667940630247443 1.6288610554985953893 -6.840674996 8354318.835 
174 1 35.710572858057929579 21.449551712372453949 1.6230103594285241186 -6.748240259 8753502.994 
175 1 32.764830392395346337 23.272445377078028628 1.648039875202596205 -6.729004668 8741757.23 
176 1 41.76160107234310459 20.111112520965598094 1.6135552028811166458 -7.031723258 7077248.94 
177 1 38.992656875703360697 21.886522034821446425 1.6240461204235518977 -6.980879032 8038311.787 
178 1 47.700945984847585635 21.139278527089903292 1.6222400799701923724 -7.17311288 5998877.649 
179 1 44.535881221326739876 21.58249498076885331 1.6161214486570985027 -7.204296479 6902360.599 
180 1 54.327078088874245054 20.839259185330220703 1.6245442254106006175 -6.915171863 6873300.761 
181 1 49.641744663561581774 23.685014524575439765 1.6184250403322102407 -7.231772676  5100884.5 
182 1 52.827342001469112631 23.669319907307979634 1.6200474192663074646 -7.157477654 4989906.58 
183 1 60.374518935780912443 20.740533986923207266 1.6091021586725675618 -7.100258069 6615608.756 
184 1 57.40033158259387136 21.925931432766471829 1.6233030141688093995 -7.101761251 7239576.582 
185 1 65.933435355929148614 21.127076455998793136 1.6258137173985662827 -6.585111893 9528533.728 
186 1 63.065922456402837781 22.55894385897187604 1.6185084382834618033 -7.131801765 6402406.252 
187 1 71.713463288632453896 20.240824747840662212 1.6216089715055568288 -6.609462486 9149343.722 
188 1 69.296432038046376078 22.388619597521486781 1.6245093307425628737 -6.473392918 9438665.936 
189 1 77.966204320942779304 19.88379317175255423 1.6190784065943748526 -7.149316196 6917119.112 
190 1 75.077890889083263914 21.317454359241441608 1.6266778957750032131 -6.67983952 9517681.951 
191 1 83.818081190813117587 20.489007977446565434 1.6202824259971091436 -7.098474296 7546014.296 
192 1 80.751633901145495997 21.497613932742488885 1.6193650108003656563 -7.131993029 7266535.65 
193 1 89.869780983525714646 20.850653090635905329 1.6207322750723744953 -6.921691224 8529011.054 
194 1 86.714151696374500489 21.986612208289500359 1.6241070040774299166 -6.959108871 8354267.533 
195 1 92.924261720691163191 22.088982047601270153 1.6250264741982860528 -6.772356482 8890447.923 
196 1 8.5236871365309063719 24.718459899447324801 1.6223409747121859681 -7.187699879 5772031.073 
197 1 2.6928797977785490225 24.823939040672616585 1.6199488599372404707 -7.214087647 5407758.667 
198 1 5.6215211636090804959 26.002786873229748466 1.6209429949410691929 -7.265523983 5911329.396 
199 1 14.195305165945832471 25.385231153061134535 1.6191358217684073129 -7.11142106 6154097.191 
200 1 11.182282539643496833 26.548221509303328247 1.6219910706989633109 -7.119724977 6282475.816 
201 1 19.758233466632439956 26.235063234957472389 1.6250219167302615286 -7.221648904 6131706.882 
202 1 16.775398250677969969 27.348090578457171063 1.6262029927844743327 -7.167816634 6018887.427 
203 1 25.575281086501604477 27.128799619993042569 1.6178271239871093723 -7.097385199 5830996.695 
204 1 22.453797323538505992 27.917079402366212548 1.6263133042149864327 -7.218614063 6561995.647 
205 1 32.922905305626628092 26.449699300751841946 1.6153161504707653773 -7.165165418 4455154.693 
206 1 27.487382936005548828 29.764005505116848838 1.6298568502219366039 -6.601919446 9556677.914 
207 1 30.934703948528134987 28.995839607884562383 1.6196363101055097911 -6.727579057 9661487.728 
208 1 40.234560224704253528 24.756454600923618159 1.6249331132738917827 -7.289462573 4075401.408 
209 1 35.569138251976028187 28.128390047858371048 1.6141516554488479773 -7.200910834 7048535.033 
210 1 38.746410992043770705 27.556602962671892243 1.6257770570394631804 -7.205493111 5868348.727 
211 1 43.316028059788088456 24.421989929338945302  1.61898488700483556 -7.362185733 4069710.27 
212 1 45.272592571229793634 26.719094018703394511 1.6314718635919891465 -7.428853762 2994197.487 
213 1 48.31422590244736881 26.503291392118434544 1.6097716426039281323 -7.343586649 2672719.582 
214 1 57.526707714174492025 25.096423798260218518 1.6202125564590923457 -7.234078805 4974428.907 
215 1 54.641366292858279508 26.340908621961819591 1.6244646385020398149 -7.115724256 3844339.254 
216 1 63.054314846120533389 25.711447991619174047 1.6215876780657128009 -7.187991725 6156301.246 
217 1 60.124610929640368795 26.935062947638581221 1.6244622226263381037 -7.222139716 5460192.591 
218 1 71.134337012933173128 25.28678629341943207 1.6247830170018857654 -6.593953662 8334667.441 
219 1 65.734674254362928991 27.498001953825401245 1.6224149177398348165 -7.134862276 7218588.487 
220 1 68.957443718193275117 27.577920858854479746 1.6205258428922142411 -7.168298885 6763365.883 
221 1 76.643959375826312908 24.210749580393542857 1.6201584360820311392 -6.893178353 8089005.284 
222 1 74.434541283241571819 26.525571577833563452 1.6235956245713951684 -6.620441975 8118682.997 
223 1  80.0192086721305742 24.548520871436597446 1.6230674086941359047 -6.724861326 9166717.193 
224 1 86.067163730729802751 25.120305370694715918 1.6212035807060083403 -6.95490219 8388490.071 
225 1 82.923345874414962964 26.310244636195982082 1.6236725109844323267 -6.825604467 8524527.924 
226 1 92.012040902847559209 25.165446875133806515 1.6188243872625418529 -7.135697216 6279407.851 
227 1 89.037206194022004979 26.444334966780768781 1.621283661195467074 -7.086400159 7499141.448 
228 1 0.48467403249558843603 27.136094652656996828 1.6243814959616729166 -7.165135561 6798777.358 
229 1 94.150184658934406912 27.469432338641922797 1.6215874466900590534 -7.16605499 6657373.203 
230 1 5.2899690224958275664 29.08370904593559203 1.623804912180253357 -7.312865993 5161051.854 
231 1 2.2281732515817402884 29.727622739115915351 1.6181111989972212228 -7.314299025 4517696.771 
232 1 10.843752894743383663 29.75383991450673804 1.6187885813980200655 -7.117569216 6096423.54 
233 1 7.8385710879890506675 30.905044873225488544 1.618322028633526255 -7.228956008 5736220.803 
234 1 16.464536304489254093 30.506581624535762387 1.6240185095165085016 -7.14215785 6583914.971 
235 1 13.465881232303910764 31.673789501040083394 1.6224851216275046895 -7.12877474 6454201.693 
236 1 22.089410013589400705 30.976052605997136169 1.6180518397510301742 -7.199088873 6116163.814 
237 1 19.156569412715409584 32.314501832742578813 1.6214941316071420641 -7.117482556 6356694.427 
238 1 25.052227032237912141 32.073068317956483497 1.6343141875927542639 -6.938476327 6489950.573 
239 1 33.738653027597308665 30.586089328649588737 1.6445134702400847626 -7.163263129 5669344.001 
240 1 43.949469689327081312 29.40739131501980097 1.6248327072901604939 -7.402495138 4068049.818 
241 1 40.908851260002180084 29.82157294260635183 1.6167987217758539309 -7.323268586 4190856.154 
242 1 49.114516687148871199 29.529465762772055371 1.6096195767123011588 -7.305857953 4449185.95 
243 1 46.428253988562680377 31.144606989482142012 1.614655582076549134 -7.356928386 3889587.138 
244 1 54.389598688342424282 29.57310397742540431 1.6281988749536213668 -7.152862489 3944030.019 
245 1 51.710881225028025199 31.250670743992891687 1.6327151872828695733 -7.224342171 4112260.598 
246 1 59.764456057939149503 30.072713567852318306 1.6227130538817917671 -7.274033995 4276982.588 
247 1 56.948684957034366505 31.451090477627314357 1.6207891208476070677 -7.217960133 3984985.631 
248 1 65.186333446895787347 30.551600680980754987 1.6187468206226924838 -7.3360526 4552224.817 
249 1 62.358963346942864803 31.87488568277109735 1.6212051732346999255 -7.280868834 4456976.47 
250 1 70.411308390222814069 30.379724945082685394 1.6210574649158240312 -7.187959356 6784971.039 
251 1 67.858166751481547863 32.153603397155777088 1.6167412614809333338 -7.347276859 4425889.591 
252 1 76.102714023261810894 29.519142548075265609 1.6278556601461813269 -6.469475387 10226679.42 
253 1 73.465805078480542534 31.421920141643340685 1.6206106161762099394 -7.104306648 6926010.783 
254 1 82.82873830503335455 29.571932414076609774 1.625018061941799985 -6.536226455 9985001.23 
255 1 79.515722580016657162 30.746012106839224032 1.6278110021018448172 -6.389313409 10722891.45 
256 1 89.214072664020378056 29.615814736783494965 1.6246997599613466345 -6.787978864 9500437.586 
257 1 86.060752627955423577 30.942877656612292725 1.6240794193061771633 -6.638588403 9478592.591 
258 1 92.509917690545407254 30.211467177739358192 1.6252064841726134858 -6.952941875 8366790.031 
259 1 7.1133728431152665195 33.985438562593415668 1.6208131203366948903 -6.916890622 8435612.468 
260 1 1.0403797071072979907 32.623109760560069503 1.6265808261494547615 -6.898920831 8752995.215 
261 1 3.7807080190553796761 34.549401500373392082 1.6193836250848454572 -6.856417545 8700049.256 
262 1 13.016934092411380774 34.837863417988259584 1.6318886894826576395 -7.040826895 7485944.366 
263 1 9.8773242138566210713 35.805602076235146569 1.6172599167531234166 -7.010666246 7763893.149 
264 1 18.697689287596844565 35.49295170409345701 1.6174587756513572057 -7.12552458 6609483.503 
265 1 15.708898764246034929 36.670771986724744806 1.6158471898099642239 -7.100352965 6514141.181 
266 1 24.240517331320070582 35.121859204198635496 1.606691499165193493 -7.054361883 3852340.258 
267 1 21.529925249140678289 37.06557008883951454 1.6312096650279188648 -6.832351323 6139219.749 
268 1 35.087123698114382364 33.334281354979786727 1.5206674479122401777 -7.395386073 3935875.407 
269 1 25.234408336202324818 37.893803302706722036 1.537935615659956623 -5.18870414 610817.7193 
270 1 40.565442117269249422 32.926925948951698331 1.607559479326006624 -7.347419578 3578441.587 
271 1 37.976663384369096832 34.581889145680428044 1.6552858509235457429 -7.215060579 4894991.434 
272 1 46.044654470884182729 34.178608070336075286 1.6211399008711402381 -7.374122331 4135419.762 
273 1 43.023944209692238871 34.857374494970692069 1.6052568135774702984 -7.358139102 4287981.431 
274 1 51.336651744170104905 34.429087715101509559 1.6244879392365805248 -7.184831198 5187412.763 
275 1 48.534549118362228626 35.950508180459394225 1.6328791820943524549 -7.254962319 5001300.604 
276 1 56.886551913594310292 34.662440450311002849 1.6222424797953551856 -7.117149073 6109842.943 
277 1 54.008676112741113684 36.131572395479665261 1.6135399442430120587 -7.189632606 5439673.06 
278 1 62.524225055473216628 35.021703823195430516 1.6228868743602797853 -7.200437048 6189858.765 
279 1 59.628991453444058379 36.382496571245447115 1.6186892382492259479 -7.163452326 6220388.903 
280 1 68.113108537610514759 35.214176556104405336 1.6234069401125443832 -7.267685392 6001028.395 
281 1 65.288049241571528114 36.612479715160787919 1.6229276183311824866 -7.235947916 5939271.857 
282 1 73.81885470263807747 34.594775556416877293 1.6231018216403805265 -7.064393836 7206928.591 
283 1 71.07028852319385237 36.344058900286533742 1.6227869069558871207 -7.145449711 6436278.528 
284 1 79.826753322127174783 34.030778650771750904 1.622875488603706895 -6.768087301 8623456.257 
285 1 76.90548712072087767 35.699242185138821526 1.6213340863348177923 -6.942963486 7928932.246 
286 1 86.248118674041208465 34.201531894082904728 1.6234724905178605781 -6.53226284 10005809.56 
287 1 82.987973362987958126 35.355858695858415786 1.6246053360208390082 -6.692460687 9399397.045 
288 1 94.588228699335545002 32.725200916212827451 1.619654815056714714 -6.982433759 7770168.628 
289 1 93.23863288433597063 35.622471856100005994 1.6251431790552159917 -6.293267623 11498601.3 
290 1 89.535679178466409667 35.689763427636258086 1.6279312381646333652 -6.136978562 12315454.73 
291 1 2.9378046162758719717 37.625171685869162275 1.6268865444472937476 -6.487462802 9736771.008 
292 1 96.264428992173591837 37.477355615772211195 1.6259109267540188259 -6.402014139 10343435.04 
293 1 9.2836679158219954644 38.94033384820172472 1.6246173360349334125 -6.706531594 9193420.144 
294 1 5.9177868264617758953 39.475466085139984784 1.6235707162355421662 -6.666330399  9173758.8 
295 1 15.551753285172141616 39.898932745559449131 1.6227929326787324804 -6.778353631 8636600.453 
296 1 12.272121078916130799 40.673758809313987683 1.6169897210990786807 -6.71672206 8974098.353 
297 1 21.373297675358287506 40.41364894624130244 1.6138918692499051311 -6.875352328 4797201.128 
298 1 18.413633335901749888 41.698196281684303699 1.6076120062346446193 -6.900792845 6531221.807 
299 1 26.488275246228305093 40.665405750907623883 1.6782981814635700157 -7.066472137 -1786640.435 
300 1 23.91706963209930592 42.376990755376731101 1.5297477259022853602 -7.073977108 3622824.343 
301 1 39.002965007784432316 37.603853205210022281 1.6393532284283220957 -7.24301206 4332822.388 
302 1 34.198502665403836431 40.484859383762412222 1.5850429735749951288 -5.257195684 207086.6546 
303 1 37.143216185499156268 40.036120684961034044 1.6238273139207768381 -7.397049077 1754197.689 
304 1 42.132146318697884624 37.799571965631457715 1.6193593333939735324 -7.257469504 4509376.812 
305 1 47.724275082744426868 38.984095687652661866 1.6209699485920960882 -7.021514888 8081902.287 