ITEM: TIMESTEP
0
ITEM: NUMBER OF ATOMS
3456
ITEM: BOX BOUNDS pp pp pp
0.0000000000000000e+00 8.5134799971758909e+01
0.0000000000000000e+00 8.1705996432429529e+01
-1.1763580788950838e+02 1.1763580788950838e+02
ITEM: ATOMS id type xu yu zu c_peratom c_stratom[1] 
1 1 4.7244352141932646205 2.7915765896636544063 1.6202343650260502272 -7.326759688 3427885.665 
2 1 4.166867366439308995 81.427611916828993799 1.6285944157471590188 -7.33847357 2264575.605 
3 1 84.925937095331931914 2.2339143241066419243 1.6292031025544559952 -7.336067856 2268521.686 
4 1 84.382015378378980586 80.947327208498137452 1.6139564653898474944 -7.383521007 3094605.081 
5 1 2.076703257182715312 4.3534969484365273473 1.6221361136083771726 -7.321017306 2670071.506 
6 1 1.8306602569865910723 79.421219360571313928 1.6141296098455910624 -7.383685225 1897794.73 
7 1 10.038197002009454195 2.7084255629604570004 1.6254687267099825476 -7.399793279 3186896.431 
8 1 9.4454396512523608465 81.42370127520483436 1.6204867354920651223 -7.442920991 1424126.254 
9 1 7.4294584721689416185 4.3431246301313679581 1.6250379691655183478 -7.332643891 3502309.197 
10 1 6.8214788615410295591 79.988102506106386613 1.6214508284992348308 -7.450462563 1567967.519 
11 1 15.321880257345735998 2.1343138757148256701 1.6329957933520518054 -7.416411636 2720472.121 
12 1 14.447309725389031243 80.96849183862399002 1.6102951449728948319 -7.466148758 819541.2033 
13 1 12.857019575666239319 3.9265151643473963361 1.6219885184696920533 -7.415963433 2927545.418 
14 1 11.81800802100466008 79.603206187622930656 1.622791439153516535 -7.433560574 1105529.902 
15 1 20.322928740395560965 1.8011779204660491871 1.6184921480137859362 -7.427292118 3401831.229 
16 1 19.210697020657214296 80.740981570820380853 1.6322667158045902625 -7.439598965 757476.7804 
17 1 17.964598558527246297 3.6290309370234865582 1.6150490650509397028 -7.446819682 2547909.408 
18 1 16.720429286574621131 79.069014418247348885 1.6201242973428122696 -7.45604916 537259.8169 
19 1 23.285207962977771956 2.4542401930200803406 1.6238485325490330524 -7.420784845 3379071.834 
20 1 25.502318243356995708 0.41180664472279104871 1.6312434553827586114 -7.416552175 2550428.803 
21 1 21.42743513266140809 78.836828426496268207 1.6036347600014266845 -7.503020844 577988.5367 
22 1 24.33784636852860217 79.398945772484808003 1.6377146362865886431 -7.461519903 930371.4927 
23 1 29.199730960065028995 3.6817581616398533662 1.5157305130783811364 -7.453533004 2490824.008 
24 1 28.458752635949931431 0.71959627773195222744 1.5201010613910455049 -7.431400582 3258070.408 
25 1 24.022170330066199284 5.3730328651886729574 1.623797788446921686 -7.396945016 3859278.935 
26 1 27.068518376717022988 5.822188103015529137 1.6348775655194174306 -7.387740458 3546485.492 
27 1 32.167680765287691713 3.2152459034046008135 1.6379038406287520502 -7.360582024 2524215.609 
28 1 33.830173735594996742 0.67585619606656255343 1.6224293205157636066 -7.30162387 5607358.027 
29 1 31.121371964482676731 81.017799987634305126 1.6186011742525465706 -7.368630662 3851974.703 
30 1 33.638728430886743581 5.7344081521533105672 1.6040026565961511551 -7.481517307 842993.1526 
31 1 36.514039454836968446 6.4698490427603170261 1.6058929302234759007 -7.458724021 1947423.401 
32 1 39.280995300535259673 5.2952510821048592859 1.6285911631492666629 -7.256197508 1867332.267 
33 1 39.398027369269847497 2.1347190483776508074 1.6199796376206876403 -7.231827934 4651277.465 
34 1 36.918692932070634072 81.84446193296042793 1.626138257511570373 -7.243946615 5209664.983 
35 1 47.227758696183094855 2.0046341913586944727 1.621968727908736696 -6.989347888 4535524.913 
36 1 47.303421569620688558 80.380694176480275814 1.624787572547049308 -6.989392814 2839808.217 
37 1 44.402090045906284388 3.5331588934224953391 1.6239591610876544792 -6.809985274 3984593.898 
38 1 42.309033858553043217 0.95703457753463616609 1.6230792978741419574 -6.971725895 3842103.653 
39 1 45.241820953580933917 77.854525252266171265 1.6223706264650985531 -6.942058119 3355163.294 
40 1 42.447737137888637449 79.367029968125748951 1.6207713498881020087 -7.05337581 4111248.173 
41 1 52.283880478902240441 2.0951783125463974145 1.6212347269972582353 -7.418442944 2686318.594 
42 1 52.408955643468758012 80.771657937964349117 1.6222387592290914426 -7.437823904 2171697.51 
43 1 49.831183910835513018 3.9604393719349899605 1.6256820999129928396 -7.097962869 4008677.891 
44 1 50.038681802924600106 78.889280056380030715 1.6244883425671616806 -7.348819468 2558437.976 
45 1 57.921563312161033821 2.2353655004788972605 1.6243708217210297562 -7.427253123 2421683.585 
46 1 57.963577778615913871 81.015819799678098434 1.6070523926741344667 -7.476889452 1075172.662 
47 1 55.072703550873264078 3.2465284406235728198 1.612378003379888014 -7.450582072 3065239.256 
48 1 55.266766114115206676 79.794329633544109015 1.6175987972557948069 -7.446395653 2290261.727 
49 1 63.255300315466342909 2.7519955033927585575 1.6239878960296465493 -7.401538188 2682790.035 
50 1 64.633237265048393283 0.031680979125722874556 1.6227970400063185252 -7.419008956 2311546.583 
51 1 60.410472555796111749 3.8584444405296394187 1.622825566888565163 -7.37763316 3037114.26 
52 1 60.141532026332065186 78.999631990449316277 1.6253378427953180108 -7.46794524 1751318.088 
53 1 63.127922373079016438 79.160032254262404194 1.6203829523619361908 -7.461717298 1256802.109 
54 1 69.327002724493539176 2.0273903740499088499 1.6232332634735371357 -7.364706737 2520195.533 
55 1 67.627224490007776581 81.164483443912786242 1.6213567326891364928 -7.33110606 2256926.958 
56 1 65.038033791819344742 5.2023973147245765603 1.6201130836055597229 -7.417627446 3036597.142 
57 1 68.081221830249972982 4.8786139613879688781 1.6259289736253919045 -7.357429173 2972644.357 
58 1 72.301142936968773256 1.4275618576125852499  1.62034855853876536 -7.444612523 2337503.552 
59 1 73.291537906770827249 80.282432933748580695 1.6194932613719288383 -7.42678221 2766958.133 
60 1 68.504178855465283959 78.144721503134277896 1.627189102106115115 -7.296471341 3032878.523 
61 1 71.566566149350222759 77.762477136818489498 1.6214416623190999189 -7.399858919 3358227.12 
62 1 79.490863548279762085 2.0441037525283478615 1.6187188535912753196 -7.425650379 2658929.671 
63 1 79.022219881819154352 80.772566652748082561 1.6258989493822895156 -7.412785687 3349738.173 
64 1 74.188897417643346444 3.7691286590938672951 1.624121115668643256 -7.445727567 2469335.418 
65 1 77.200959964911888278 4.0012589087507963725 1.6164142304844517639 -7.45080824 2898133.583 
66 1 76.230799257066010455 79.508347204809794562 1.6190340689933151452 -7.410701838 3672064.536 
67 1 82.19692166530685995 3.4412102171355445357 1.6071638719085115099 -7.433412067 2642802.617 
68 1 81.735658101460742841 79.427421089492767692 1.6231797348250438517 -7.397574223 3092906.373 
69 1 8.1619922723290159183 7.3525525548120462815 1.6185731700777807873 -7.364246765 2422926.712 
70 1 1.7868876658938646074 7.4632057361600416812 1.6234375222714021447 -7.322814479 2302310.059 
71 1 3.6211106853623835633 9.9907568779615960608 1.6213237072260398008 -7.339008484 2765940.823 
72 1 6.6798191175749144222 10.044310978648088195 1.6269972843982856148 -7.368272386 2560770.483 
73 1 13.531682405214469966 6.8887383666612906907 1.6247438922379018322 -7.43174716 2741045.289 
74 1 10.982264086229527322 8.5050381128490997185 1.6176725341265694169 -7.425085726 2726400.649 
75 1 18.621891419656712685 6.5235326337613201986 1.6211756864645110454 -7.429403967 3296444.479 
76 1 16.214109062078609469 8.3127598025378972579 1.6205394111053976758 -7.437242867 2761450.641 
77 1 21.57982778912149513 7.1957224699416491021 1.6232149470573062899 -7.406390468 3571822.545 
78 1 27.329708173700034024 8.8146158869440611738 1.6175729752651477611 -7.426846468 3214575.002 
79 1 21.886129633984186427 10.195606418506942603 1.626280296904781153 -7.392350768 3713379.759 
80 1 24.909887062622900089 10.600697312119777393 1.6184073891482739782 -7.409963949 3652719.939 
81 1 32.639971695780090499 8.5113952776243930742 1.6088245170071502343 -7.441107051 2732300.714 
82 1 30.088045079999737652  10.0774316368830128 1.6306225667783849076 -7.411487943 3318821.962 
83 1 35.526859075193669923 9.3036824774359381252 1.6094854116432060209 -7.447006275 2101720.393 
84 1 44.160430968843975563 6.9613752104610879812 1.6256588943804644032 -6.794296019 4071124.309 
85 1 41.112264895813339649 7.8758846302247569326 1.6201590727758485855 -7.129572746 4039069.331 
86 1 50.712343368457766246 7.0851489865870016516 1.6222041419299699783 -7.15222972 4086942.694 
87 1 45.972547786247218937 9.7559894394277577589 1.6225131011324975816 -7.005368302 4145870.414 
88 1 49.125193054913957269 9.7881574834218731951 1.6201408320296195598 -7.24901555 4745231.466 
89 1 55.783188315758849285 6.1632996038901417535 1.6138128750978211201 -7.438965951 2720221.671 
90 1 53.643058345349189153 8.3117958822514825812 1.6259780386930344775 -7.261406698 4023340.508 
91 1 58.776183112310903311 6.3441537815824906588 1.6013659614320090441 -7.425368651 2952604.126 
92 1 60.498051543196673663 8.7292287013710634369 1.614407917977828788 -7.41310977 1986907.261 
93 1 63.369364540352293602 7.7366648960271060531 1.6229050930914894479 -7.41050388 2372254.222 
94 1 72.937072622577289849 6.5163549718729596449 1.6265659093573674454 -7.439553531  2376134.4 
95 1 69.991121607711534125 7.3125238195213677628 1.6256285828238645763 -7.373664602 2366479.406 
96 1 78.946785164907282706 6.4453669075059059068 1.628986280261855768 -7.439635168 1272907.587 
97 1 74.810084318325877462 8.8335543170795283174 1.5941214030736148288 -7.484842233 1128276.338 
98 1 77.767587935789464382 9.1557372204605940169 1.6308548618478084791 -7.437471788 1158039.883 
99 1 81.924451464972065651 6.4267483516325238924 1.6070411896574938737 -7.448977647 1296301.812 
100 1 84.066276454532498974 8.5550030331918058835 1.6253068308079150484 -7.422135814 2217234.233 
101 1 84.282783192762835256 11.586511195478038871 1.622467348588600089 -7.445155836 1562913.815 
102 1 1.9900932862131792689  12.6148490547207075 1.6207368097997516543 -7.352422106 1395352.713 
103 1 11.159403246503028839 11.538914797034848903 1.618357802018010716 -7.410990186 3547073.346 
104 1 8.3319510499475271104 12.664842227195325819 1.6160736625291889368 -7.375937828 2539358.801 
105 1 16.430405301843965304 11.324232412850822271 1.6244872522101019285 -7.398802334 3772450.238 
106 1 13.860280660587854129 13.005896021443062338 1.6245390773094072756 -7.384792373 3613773.97 
107 1 19.421555165128967957 12.015686621623997254 1.6231204981885980487 -7.397316784 3905461.257 
108 1 26.10101332596927648 13.347454174442285435 1.6267209954177559439 -7.417644647 3387781.103 
109 1 20.640870969425503034 14.770850896059203095 1.6183037421488535301 -7.428017683 2993014.602 
110 1 23.656065949561785544 15.15346328374709195 1.6207840170578577954 -7.418864479 3467026.641 
111 1 31.361213869897650142 12.818353911927923505 1.6219146005565221458 -7.339162789 5133871.101 
112 1 28.872336642328463086 14.571464401877790351 1.6200626292835096365 -7.403051811 3811044.842 
113 1 37.010047691211610754 11.882550803177515775 1.6282816239838240335 -7.096983321 6459024.505 
114 1 34.345981151668254938 13.594501431152488991 1.6221283829750348104 -7.230976277 6277287.27 
115 1 40.083412894508256841 10.968860477821685606 1.6252061811983509187 -7.111877828 4852578.35 
116 1 42.019903799131562039   13.449968081231507 1.6179496613957695672 -7.201523534 5805341.657 
117 1 45.162750306127350086 12.909825451485849257 1.6249432898116396018 -7.050612973 5912368.188 
118 1 54.075636203550189407 11.430126349215672832 1.6231671986355422632 -7.21268012 4939776.748 
119 1 51.088994056340503391 12.287678979932405099 1.6188747150349769299 -7.260436328 3797496.201 
120 1 59.456696626589490506 11.512249757259684912 1.6025576458346932895 -7.435117184 2049323.989 
121 1 56.861135866030899422 13.003931263388002648 1.6313731419729009531 -7.141522564 5192969.203 
122 1 64.212178592747179096 10.57843415914965135 1.6088847011248077479 -7.48174323 819230.875 
123 1 62.133515825390205123 12.66933697890157795 1.5980056500045520806 -7.476426722 1151674.535 
124 1 69.365908073326323802 10.341657459271921482 1.6259314806937510411 -7.382912393 1239620.425 
125 1 66.816321665558703558 11.99008297641468701 1.6247547524197614166 -7.426116093 1179431.496 
126 1 74.12608600481836163 11.701959208572644044 1.5929492058847500857 -7.500811482 747579.7977 
127 1 71.35850308721428803 12.626924271705346925 1.626374504630859974 -7.421406857 380730.6853 
128 1 79.171655510591122606 11.783588890400009674 1.6182964256257434954 -7.470148994 1306684.772 
129 1 76.618126609413167216 13.288136039212853134 1.6226606757930994718 -7.477741668 976081.8511 
130 1 81.775311830849247485 13.214043233310928116 1.6240064936569638121 -7.460142638 1083194.554 
131 1 7.8626948557396287853 15.711253896481535364 1.6253999384122863603 -7.317986171 4721590.868 
132 1 2.3259404624227517644 15.717579650814831993 1.6258877586743523125 -7.289219926 4574464.61 
133 1 5.0943851547813956415 17.169080544366714491 1.6210456669682002939 -7.330351941 4525139.739 
134 1 13.49561061390741834 16.062606451321169487 1.6233945337742738957 -7.34655946 4336774.863 
135 1 10.607081624946996357 17.235113099036158957 1.622715828363098467 -7.328459719 4736860.441 
136 1 19.044938812678719131 17.345253845414791982 1.6207220172746161779 -7.397857319 4182556.602 
137 1 16.015392808447366235 17.886519885085014892 1.6238663244529476515 -7.361617932 4328935.371 
138 1 23.91995009974368358 18.148508743511090557 1.6218149343204828483 -7.425781077 3105302.155 
139 1 21.194382549472557287 19.501029306614096726 1.6182559718361630985 -7.429841684 2889426.226 
140 1 29.045055228609740539 17.544684489638374458 1.6125608350660485257 -7.393954313  3202790.2 
141 1 26.669527398807783669 19.482398043367279428 1.6303537016234486146 -7.383464309 3315119.121 
142 1 34.462189213636591489   16.631044495738319 1.6171454210996500933 -7.235981306 4807215.214 
143 1 31.930223984263211179 18.511644207401282358 1.6246044048996282072 -7.231600022 4871337.448 
144 1 40.507216227856595481 16.267338989182551501 1.629063033963021212 -7.172015179 6126018.845 
145 1 37.477358402973656837 17.339519283584927223 1.6210789244024539357 -7.166184317 6363448.916 
146 1 47.266556485784441577 15.417294884736964633 1.6224656596589284163 -7.076316836 6175279.182 
147 1 42.705786582421687569 18.514065054890842532 1.6203566291253963527 -7.338669441 4310651.058 
148 1 45.802906354469328676 18.220116257588269804 1.624422909724131614 -7.271357211 3836778.998 
149 1 50.505021681252443955 15.371348473961637282 1.6248955829619262659 -7.022425324 6844594.169 
150 1 58.25223694914397754 15.911790574980072321 1.620264334973427367 -7.092370835 5330404.516 
151 1 52.962072540212240312 17.607285862812734223 1.6230110279425957742 -6.980129676 6636517.094 
152 1 56.148471212650967743 18.208572492963728706 1.6214054062760681063 -7.077835132 6070701.903 
153 1 63.489413483838632146 15.279061025307772326 1.6251717237596636778 -7.416878818 3077670.73 
154 1 61.186869622405680502 17.282631218218099889  1.63154777930681405 -7.121300052 5352152.196 
155 1 66.515143226558038236 15.021050425114312432 1.6238598229277414475 -7.424197835 2658566.989 
156 1 71.325504780473693245 15.609603158843432524 1.621561337256139268 -7.436521507 2345741.701 
157 1  68.7252225828020471 17.081772297372708636 1.625153823968403799 -7.459779946 1536684.43 
158 1 76.635755180019401678 16.244934809005432186 1.6240642974038763668 -7.448909437 2584119.403 
159 1 73.833339417167536567 17.284495868655209705 1.6205773776575682632 -7.440030341 2442795.351 
160 1 81.925192648669835194 16.229681036020448204 1.622481619850560719 -7.407037042 3687062.696 
161 1 79.266564123579030365 17.728338000592891888 1.6234422703468283089 -7.418625893 3253705.593 
162 1 84.775646004651392218 17.38008118477819508 1.6226738046668032212 -7.309301923 4414880.533 
163 1 4.8959807730744051568 20.262857666210070562 1.6235897768414275788 -7.344328897 4345354.193 
164 1 84.48403775889475753 20.484452010537587796 1.623635079200496989 -7.28953107 4662916.53 
165 1 2.1703291410315337373 21.774308099395330629 1.6241411444485009952 -7.359462634 4167957.397 
166 1 10.389208152734394019 20.313860335128289591 1.6214188015297992251 -7.372884008 3492250.753 
167 1 7.6488426681052565925 21.693760824191574699 1.6231518005266707405 -7.385131999 3929025.851 
168 1 15.695494636421692292 20.938671752493927869 1.6231144934031362936 -7.395065321 3090887.375 
169 1 12.875758969740179083 22.175167495685148111 1.6254291716084736663 -7.369038817 3455910.368 
170 1 20.888593343320398077 22.492766396501199466 1.623821080830396113 -7.416097727 3412823.292 
171 1 17.898652427263176179 23.069786879418231251 1.6209347080478408998 -7.415582317 2965946.815 
172 1 26.225879569894651411 22.496171499682244388 1.6148104663107858414 -7.41060278 3077263.06 
173 1 23.558968923436538034 23.994152554759555329 1.6307365680539191999 -7.388537314 3446747.056 
174 1 31.173720237237670716 21.509984489961503584 1.6165452774034179129 -7.254976748 2311032.076 
175 1 29.004198674558058002 23.751322984761582546 1.6256237000836932793 -7.306458244 2501231.318 
176 1 36.449738540825116218 20.232053669541652852 1.6240370960983199211 -7.285917632 2414931.328 
177 1 34.116776345852301233 22.191917964051082635 1.6105492949192665719 -7.349598544 1664283.272 
178 1 41.647154258902155277 21.390617225549142688 1.622978812809833471 -7.410729613 1301979.543 
179 1 38.740217438814688933 22.103813967171049626 1.6178405241424798078 -7.463546409 1155055.916 
180 1 47.20043388635154713 21.048964279025998536 1.6164494748855986472 -7.303834832 2378932.54 
181 1 43.009947049857707668 24.119475090712644061 1.6288314150068714525 -7.391171348 812419.9211 
182 1 46.031118157869656216 23.920655377838254907 1.6255597755146737882 -7.326474712 1044646.771 
183 1 52.67564446604577455  20.6803935550042155 1.6204869765914224899 -7.382201473 2715936.443 
184 1 50.041982882199782523 22.152086267287572241 1.6167528586013020231 -7.415149397 2591319.99 
185 1 57.781020484942068549 20.973904636248224875 1.6073843356295185458 -7.085114042 5747537.694 
186 1 55.122925915003428088 22.516485890265872882 1.5986553700198697925 -7.397050331 2653514.842 
187 1 62.698506809401152395 20.01305018209939135 1.5046408524506347248 -7.192516336 4687242.996 
188 1 60.63563740423207804 22.442245670543538694 1.5110359433464566337 -7.053593825 5557069.427 
189 1 68.268263587018765293 20.04629487018482692 1.6225907524906233448 -7.41424866 3173712.549 
190 1 65.524665912573567539 21.390777853351753635 1.632338866639699404 -7.213208296 5117616.461 
191 1 73.526792361221964711 20.267656963367446821 1.6254834811594491839 -7.420458024 3161989.373 
192 1 70.851939045090205127 21.652194548549864805 1.6019073107126615696 -7.43859029 3086559.306 
193 1 78.940807960750333905 20.742598588776740343 1.6211294076465492253 -7.371690827 4210285.099 
194 1 76.090706799174824937 21.954208288769034851 1.6250434515006304537 -7.369678881 4233063.265 
195 1 81.732085440905422047 22.044039325006458796 1.6262937504527741339 -7.294050246 4696883.617 
196 1 7.5893154135457177034 24.728386884466157625 1.6208829354739435757 -7.43642512 1254548.471 
197 1 2.268779006823144595 24.813954778171627424 1.6185436264355104186 -7.447027885 1409481.888 
198 1 4.961445724419134784 26.124171723848146343 1.6185448466549274826 -7.473450796 1464572.337 
199 1 12.60285375376167849 25.237564339208514497 1.6197259640163963468 -7.406337355 1194837.191 
200 1 9.933084823451849843 26.639653136126412392 1.6212759446700744093 -7.412129841 1472597.55 
201 1 17.411776762426239173 26.041844093379275193 1.6227938470496212631 -7.459464059 1055118.677 
202 1 14.747036403961942597 27.403869120631060952 1.6260617436794149171 -7.409380971 982550.4097 
203 1 22.825870253499601858 26.892375542995111459 1.590632874688026277 -7.439946982 757992.808 
204 1 19.93907818143191335 27.615853957216170755 1.5958546478362194421 -7.474289986 1269390.339 
205 1 28.944480803141114933 26.82262285204248542 1.602590260886984197 -7.331163593 374257.1133 
206 1 24.093831044357326476 29.597741350475835986 1.6340748688215711582 -7.398327869 106179.9108 
207 1 26.989961129006463381 29.097888175522022891 1.6003367516113229385 -7.403077076 463692.4996 
208 1 34.845638471615146159 25.110569873335080615 1.6290366814106391757 -7.376839224 1064741.277 
209 1 30.872265595078435041 29.139244153631604917 1.6184322062283769128 -7.300488215 915317.7177 
210 1 33.587727740658031905 27.878558186606589686 1.6227284621551660848 -7.360593052 221437.0453 
211 1  37.8386019846848356 24.925914828711519533 1.6200605787610697917 -7.44413162 567593.7925 
212 1 39.205015535861043929 27.465517105102033923 1.617494909879297893 -7.458099788 306821.2327 
213 1 42.111055396021619401 27.009185545830067809 1.6110605737985679298 -7.392159765 116444.862 
214 1 50.248202159822945134 25.186703495996042079 1.6101315363012673743 -7.427766755 1604603.499 
215 1 47.567391435328282512 26.592578277277794996 1.6152297529151695699 -7.33882089 995878.5927 
216 1 55.300951154762927331 25.526614695003843281 1.6267526433354362325 -7.424208662 2146111.309 
217 1 52.663445217076102267 26.966670107093193565 1.625589077611877542 -7.439271703 1719210.157 
218 1 62.512582499749548504 25.037243497465077269 1.6306241893994837255 -7.014689216 4849527.823 
219 1 57.682238358715174797 27.360712740105565643 1.619317398738289171 -7.431731095 2376434.446 
220 1 60.698739764450088785 27.480221384160788745 1.6251703307289631084 -7.409004141 2268752.288 
221 1 67.125567545582356388 24.032138527428148933 1.5222611807280657104 -7.285340238 4042164.868 
222 1 65.306960120092767852 26.617779218138252872 1.5258650029563369799 -7.059700325 4495982.195 
223 1 70.132440199974709572 24.591391053779979359 1.6087221848218433706 -7.309947909 4310557.549 
224 1 75.338329818029563967 24.934397437735942304 1.6231352522489004286 -7.381509263 4000286.807 
225 1 72.612192448383851229 26.396825643325339428 1.6268773255467152694 -7.339903783 4335371.774 
226 1 80.761686434496013476 24.958761595210606998 1.6137083511253393908 -7.380169733 2689240.186 
227 1 78.049670518507880956 26.322272784388839995 1.6165695714007597417 -7.389406079 3454904.719 
228 1 0.30239385368831506185 27.08967198783747321 1.6165132387589977725 -7.455459168 1682336.553 
229 1 82.462535330287835222 27.437704176570857584 1.6269890365652344144 -7.447244873 1293184.32 
230 1 4.9101610236987349722 29.122172965268802614 1.6210075893031046235 -7.470144428 1196306.41 
231 1 1.9613585638158985702 29.617951636788539815 1.6220818638434195691 -7.448548121 1079174.18 
232 1 9.937445442582705013 29.701282551582576019 1.6276220683670885592 -7.399723166 1308896.286 
233 1 7.2285350094633162854 31.005205978917150134 1.6181483116208141837 -7.462691581 1147555.39 
234 1 14.790005569823316378 30.456218768059223123 1.6215209964228023409 -7.413407337 1353550.376 
235 1 12.123092519011363422 31.835391921226619871 1.6190112243736933806 -7.405264793 1043819.704 
236 1 19.963164229165169417 30.642145042271742739 1.6236977492026909431 -7.433978333 1204899.619 
237 1 17.340691665410520983 32.114323298760552916 1.6230118867582632447 -7.403763502 1488415.44 
238 1 22.551388824343305828 32.197778324274771933 1.6196838153847181729 -7.403420946 875016.1634 
239 1 28.906108179728217777 31.462595366183556678 1.6172119483958198316 -7.20642313 1752653.648 
240 1 37.907934875372930605 30.101964265828129896 1.6208901386936105382 -7.466869714 -218452.3667 
241 1 35.037297168493104493 30.46203049608146074 1.6139933490967308671 -7.416062477 -174308.2295 
242 1 42.942442167920653162 29.817762020900175912 1.6095592322616880665 -7.437553293 -2192.74987 
243 1 40.461568802343720108 31.478196501141233909 1.6216815840824949646 -7.41922544 227344.9971 
244 1 47.533312896531363378 29.663113510650340743 1.6201510761607806899 -7.346053013 447895.4537 
245 1 45.251464731369900107 31.615285729688608285 1.6306266170689127648 -7.386957545 -183328.9443 
246 1 52.478735986655458134 29.985429055334890336 1.6239453323151309405 -7.439905704 473076.9616 
247 1 49.917435110289304134 31.499284160685665057 1.6157339804643413572 -7.391432849 657964.4601 
248 1 57.391029844329381149 30.328859447089520529 1.6175436492074481976 -7.469330107 522415.291 
249 1 54.837261237688672111 31.791502117098620062 1.6221037624510756814 -7.464112201 293433.0225 
250 1 62.20640035152099756 30.104992776075476968 1.6105288459484512487 -7.450909427 1755836.743 
251 1 59.866793150469447937 31.926188313277620523 1.6091388900856884447 -7.487883798 589046.7087 
252 1 67.114494206037875301 29.281512202421549063 1.6248277779714186408 -7.127176631 5644747.173 
253 1 64.90462231691874706 31.355028253990088416 1.6166532104223563238 -7.423301469 1578169.483 
254 1 72.860509672838063011 29.478269933262829738 1.6236854138592917707 -7.306950263 4963902.542 
255 1 69.970488672476434999 30.661050461580504845 1.6236597189231645189 -7.230119044 5205014.126 
256 1 78.343913440691935079 29.376818520557392844 1.6198940240981158922 -7.356762346 4415303.107 
257 1 75.664166563592644366 30.920261819283023641 1.6235423441293477254 -7.306079231 4775204.655 
258 1 81.292281267987959836 30.243508227666481503 1.6205707152381592095 -7.348527131 4090422.184 
259 1 6.6904227158653180041 33.98063285067166106 1.6251072222960942781 -7.343330939 4571633.948 
260 1 1.1265706612453119106 32.537839658301955126 1.6262987486982609653 -7.316267576 4834625.896 
261 1 3.6167577902669698631 34.447863244766139701 1.6189492529481555039 -7.302912983  4974435.5 
262 1 11.995888128477615098 34.901162512391685766 1.6265945753028745457 -7.314809825 4604027.446 
263 1 9.0855810823578657676 35.955879837494549633 1.618754668424159604 -7.34817212 4228616.578 
264 1 17.48154802466663682 35.196852654877950783 1.6233806971707025468 -7.320399026 4584032.61 
265 1 14.681004438478657548 36.55326790558990524 1.6205389013307609503 -7.308076891 4680882.521 
266 1 22.916805291726905836 35.250795861772921569 1.6238299691810880176 -7.298292481 4986367.232 
267 1 20.180132703729100285 36.825530253618545373 1.6230833169817628914 -7.27318952 4967387.414 
268 1 28.454873717832896318 34.600173248201677723 1.6318540468882360983 -7.113297267 5765586.691 
269 1 25.79807157585572952 36.522115048794894676 1.6230346314822554632 -7.092343204 5571657.738 
270 1 33.877974457053340984 33.195796624522344587 1.6256092208727039861 -7.371887239 3943882.726 
271 1 31.526265472818106872 35.102675499507682844 1.6165856848340922625 -7.345424571 5031583.858 
272 1 39.487713158826380777 34.261759233400269409 1.6130551602524434429 -7.398049111 3566633.856 
273 1 36.507789703337770959 34.831425267528231871 1.6284119824720306724 -7.364565287 4320310.76 
274 1 44.46732573174769243 34.55043142832007419 1.6254615554182549886 -7.41333659 2584858.396 
275 1 41.830096205626752237 36.044438022471950944 1.6181880888045725442 -7.43764151 2280040.991 
276 1 49.505958834317240758 34.552303324730722522 1.6301093738814103062 -7.372564147 2613823.879 
277 1 46.960931581151164949 36.254428858143825209 1.617244770172348467 -7.428297553 2078747.877 
278 1 54.63596846401045326 34.786624634828505975 1.6244827685689813279 -7.446026134 2250748.319 
279 1 52.025844440495767174 36.329573517472780964 1.6221959111389736563 -7.403492794 2377572.33 
280 1 59.853733786679114814 34.902880983033135465 1.6256577694684182234 -7.450399835 2383460.967 
281 1 57.217232912165023606 36.37203426129126882 1.6225854336204292849 -7.448053187 2348026.55 
282 1 65.059137701936535336 34.406534677389132071 1.6246711409449545727 -7.3763807 3300708.222 
283 1 62.57335002856417816 36.245443921847041224 1.6236718263401854756 -7.375912353 3045105.48 
284 1 70.373465888562179771 33.77775279350940707 1.6227620716038018145 -7.266550912 5139687.958 
285 1   67.868975898162617 35.639757409923994658 1.6205401719436309804 -7.34290176 3859674.724 
286 1 76.129530652744904273 34.009076279271660326 1.6240928724354546375 -7.190286718 6614135.84 
287 1 73.187128682843621164 35.177385302853650728 1.6218419342797716354 -7.263139294 6005712.302 
288 1 83.171961596524596416 32.704895749336962751 1.6162482008821541513 -7.336403921 4039067.496 
289 1 82.080496022556175717 35.571365750925977522 1.6208475898870773335 -7.062024138 7481725.825 
290 1 78.852184406372884951 35.707919147369608481 1.6236437768389464509 -7.113240822 7096010.326 
291 1 2.874348411142593207 37.447796324892323128 1.6224465743071192492 -7.047330594 6958618.332 
292 1 84.761708945881622412 37.408983916747359899 1.6248271073118445429 -7.038419755 7292890.406 
293 1 8.6514240721153612412 38.99063855677093926 1.624554428170142728 -7.125977402 6950840.226 
294 1 5.4713315430668982842 39.414787453184359833 1.6224407056631662272 -7.099807012 6845621.964 
295 1 14.473765777909118668 39.651376587589417966 1.6222004123972340039 -7.200819615 5983673.529 
296 1 11.456643176000673279 40.564460157395714646 1.6191261690617437807 -7.177436922 6665436.612 
297 1 19.971218513866762834 39.96170811158729208 1.6195420105087805496 -7.248767947 5374163.734 
298 1 17.154019572915622405 41.427197501002460456 1.6238334377188294866 -7.175637179 5864783.867 
299 1 25.454629701252791563 39.735052584158964351 1.6272243561513874965 -7.119569372 5411928.365 
300 1 22.729647429176530693 41.541169203127310539 1.6244219197608629202 -7.09104363 5519280.703 
301 1 33.00589360679403228 37.753269375664217478 1.6272681343227475281 -7.404593154 3279912.707 
302 1 28.29498356902215761 40.984401666125116037 1.6137168621987285633 -7.360309021 4637761.58 
303 1 31.191242163391912356 40.11934876201373612 1.6129524211225430008 -7.415101141 3102691.205 
304 1 36.065452886172948865 37.858256530017534658 1.6196861413489358483 -7.37949866 3782397.386 
305 1 41.40372564696581037 38.987928018717930456 1.622931381129149031 -7.42661428 3427928.329 
306 1 38.454709755766977253 39.817831713327329624 1.626582150574833463 -7.374693063 3765844.965 